<?xml version="1.0" encoding="UTF-8"?>

<!-- generated on 07/28/20 16:01:26 by Eclipse SUMO GUI Version 1.6.0
<configuration xmlns:xsi="http://www.w3.org/2001/XMLSchema-instance" xsi:noNamespaceSchemaLocation="http://sumo.dlr.de/xsd/sumoConfiguration.xsd">

    <input>
        <net-file value="./ITLS.net.xml"/>
        <route-files value="./ITLS.rou.xml"/>
    </input>

    <output>
        <netstate-dump value="././output/dump.sumo.tr"/>
        <tripinfo-output value="././output/output-tripinfos.xml"/>
    </output>

    <time>
        <begin value="0"/>
        <step-length value="0.2"/>
    </time>

    <processing>
        <lateral-resolution value="0.8"/>
    </processing>

    <report>
        <verbose value="true"/>
        <no-warnings value="true"/>
        <duration-log.disable value="false"/>
    </report>

    <traci_server>
        <remote-port value="55075"/>
    </traci_server>

    <random_number>
        <seed value="20200720"/>
    </random_number>

    <gui_only>
        <gui-settings-file value="./view.settings.xml"/>
        <quit-on-end value="true"/>
        <start value="true"/>
        <tracker-interval value="0.2"/>
    </gui_only>

</configuration>
-->

<netstate xmlns:xsi="http://www.w3.org/2001/XMLSchema-instance" xsi:noNamespaceSchemaLocation="http://sumo.dlr.de/xsd/netstate_file.xsd">
    <timestep time="0.00">
        <edge id="CAEU">
            <lane id="CAEU_0"/>
            <lane id="CAEU_1">
                <vehicle id="ES.SP.0.0" pos="5.10" speed="0.00" posLat="0.00" speedLat="0.00"/>
            </lane>
            <lane id="CAEU_2"/>
            <lane id="CAEU_3"/>
        </edge>
        <edge id="CAWU">
            <lane id="CAWU_0"/>
            <lane id="CAWU_1">
                <vehicle id="WN.SP.0.0" pos="5.10" speed="0.00" posLat="0.00" speedLat="0.00"/>
            </lane>
            <lane id="CAWU_2"/>
            <lane id="CAWU_3"/>
            <lane id="CAWU_4"/>
        </edge>
        <edge id="JSNU">
            <lane id="JSNU_0"/>
            <lane id="JSNU_1">
                <vehicle id="NE.SP.0.0" pos="5.10" speed="0.00" posLat="0.00" speedLat="0.00"/>
            </lane>
            <lane id="JSNU_2"/>
        </edge>
        <edge id="JSSU">
            <lane id="JSSU_0"/>
            <lane id="JSSU_1">
                <vehicle id="SW.SP.0.0" pos="5.10" speed="0.00" posLat="0.00" speedLat="0.00"/>
            </lane>
            <lane id="JSSU_2"/>
        </edge>
    </timestep>
    <timestep time="0.20">
        <edge id="CAEU">
            <lane id="CAEU_0"/>
            <lane id="CAEU_1">
                <vehicle id="ES.SP.0.0" pos="5.20" speed="0.52" posLat="0.00" speedLat="0.00"/>
            </lane>
            <lane id="CAEU_2"/>
            <lane id="CAEU_3"/>
        </edge>
        <edge id="CAWU">
            <lane id="CAWU_0"/>
            <lane id="CAWU_1">
                <vehicle id="WN.SP.0.0" pos="5.20" speed="0.52" posLat="0.00" speedLat="0.00"/>
            </lane>
            <lane id="CAWU_2"/>
            <lane id="CAWU_3"/>
            <lane id="CAWU_4"/>
        </edge>
        <edge id="JSNU">
            <lane id="JSNU_0"/>
            <lane id="JSNU_1">
                <vehicle id="NE.SP.0.0" pos="5.20" speed="0.52" posLat="0.00" speedLat="0.00"/>
            </lane>
            <lane id="JSNU_2"/>
        </edge>
        <edge id="JSSU">
            <lane id="JSSU_0"/>
            <lane id="JSSU_1">
                <vehicle id="SW.SP.0.0" pos="5.20" speed="0.52" posLat="0.00" speedLat="0.00"/>
            </lane>
            <lane id="JSSU_2"/>
        </edge>
    </timestep>
    <timestep time="0.40">
        <edge id="CAEU">
            <lane id="CAEU_0"/>
            <lane id="CAEU_1">
                <vehicle id="ES.SP.0.0" pos="5.41" speed="1.04" posLat="0.00" speedLat="0.00"/>
            </lane>
            <lane id="CAEU_2"/>
            <lane id="CAEU_3"/>
        </edge>
        <edge id="CAWU">
            <lane id="CAWU_0"/>
            <lane id="CAWU_1">
                <vehicle id="WN.SP.0.0" pos="5.41" speed="1.04" posLat="0.00" speedLat="0.00"/>
            </lane>
            <lane id="CAWU_2"/>
            <lane id="CAWU_3"/>
            <lane id="CAWU_4"/>
        </edge>
        <edge id="JSNU">
            <lane id="JSNU_0"/>
            <lane id="JSNU_1">
                <vehicle id="NE.SP.0.0" pos="5.41" speed="1.04" posLat="0.00" speedLat="0.00"/>
            </lane>
            <lane id="JSNU_2"/>
        </edge>
        <edge id="JSSU">
            <lane id="JSSU_0"/>
            <lane id="JSSU_1">
                <vehicle id="SW.SP.0.0" pos="5.41" speed="1.04" posLat="0.00" speedLat="0.00"/>
            </lane>
            <lane id="JSSU_2"/>
        </edge>
    </timestep>
    <timestep time="0.60">
        <edge id="CAEU">
            <lane id="CAEU_0"/>
            <lane id="CAEU_1">
                <vehicle id="ES.SP.0.0" pos="5.72" speed="1.56" posLat="0.00" speedLat="0.00"/>
            </lane>
            <lane id="CAEU_2"/>
            <lane id="CAEU_3"/>
        </edge>
        <edge id="CAWU">
            <lane id="CAWU_0"/>
            <lane id="CAWU_1">
                <vehicle id="WN.SP.0.0" pos="5.72" speed="1.56" posLat="0.00" speedLat="0.00"/>
            </lane>
            <lane id="CAWU_2"/>
            <lane id="CAWU_3"/>
            <lane id="CAWU_4"/>
        </edge>
        <edge id="JSNU">
            <lane id="JSNU_0"/>
            <lane id="JSNU_1">
                <vehicle id="NE.SP.0.0" pos="5.72" speed="1.56" posLat="0.00" speedLat="0.00"/>
            </lane>
            <lane id="JSNU_2"/>
        </edge>
        <edge id="JSSU">
            <lane id="JSSU_0"/>
            <lane id="JSSU_1">
                <vehicle id="SW.SP.0.0" pos="5.72" speed="1.56" posLat="0.00" speedLat="0.00"/>
            </lane>
            <lane id="JSSU_2"/>
        </edge>
    </timestep>
    <timestep time="0.80">
        <edge id="CAEU">
            <lane id="CAEU_0"/>
            <lane id="CAEU_1">
                <vehicle id="ES.SP.0.0" pos="6.14" speed="2.08" posLat="0.00" speedLat="0.00"/>
            </lane>
            <lane id="CAEU_2"/>
            <lane id="CAEU_3"/>
        </edge>
        <edge id="CAWU">
            <lane id="CAWU_0"/>
            <lane id="CAWU_1">
                <vehicle id="WN.SP.0.0" pos="6.14" speed="2.08" posLat="0.00" speedLat="0.00"/>
            </lane>
            <lane id="CAWU_2"/>
            <lane id="CAWU_3"/>
            <lane id="CAWU_4"/>
        </edge>
        <edge id="JSNU">
            <lane id="JSNU_0"/>
            <lane id="JSNU_1">
                <vehicle id="NE.SP.0.0" pos="6.14" speed="2.08" posLat="0.00" speedLat="0.00"/>
            </lane>
            <lane id="JSNU_2"/>
        </edge>
        <edge id="JSSU">
            <lane id="JSSU_0"/>
            <lane id="JSSU_1">
                <vehicle id="SW.SP.0.0" pos="6.14" speed="2.08" posLat="0.00" speedLat="0.00"/>
            </lane>
            <lane id="JSSU_2"/>
        </edge>
    </timestep>
    <timestep time="1.00">
        <edge id="CAEU">
            <lane id="CAEU_0"/>
            <lane id="CAEU_1">
                <vehicle id="ES.SP.0.0" pos="6.66" speed="2.60" posLat="0.04" speedLat="0.20"/>
            </lane>
            <lane id="CAEU_2"/>
            <lane id="CAEU_3"/>
        </edge>
        <edge id="CAWU">
            <lane id="CAWU_0"/>
            <lane id="CAWU_1">
                <vehicle id="WN.SP.0.0" pos="6.66" speed="2.60" posLat="0.00" speedLat="0.00"/>
            </lane>
            <lane id="CAWU_2"/>
            <lane id="CAWU_3"/>
            <lane id="CAWU_4"/>
        </edge>
        <edge id="JSNU">
            <lane id="JSNU_0"/>
            <lane id="JSNU_1">
                <vehicle id="NE.SP.0.0" pos="6.66" speed="2.60" posLat="0.00" speedLat="0.00"/>
            </lane>
            <lane id="JSNU_2"/>
        </edge>
        <edge id="JSSU">
            <lane id="JSSU_0"/>
            <lane id="JSSU_1">
                <vehicle id="SW.SP.0.0" pos="6.66" speed="2.60" posLat="0.00" speedLat="0.00"/>
            </lane>
            <lane id="JSSU_2"/>
        </edge>
    </timestep>
    <timestep time="1.20">
        <edge id="CAEU">
            <lane id="CAEU_0"/>
            <lane id="CAEU_1">
                <vehicle id="ES.SP.0.0" pos="7.28" speed="3.11" posLat="0.12" speedLat="0.40"/>
            </lane>
            <lane id="CAEU_2"/>
            <lane id="CAEU_3"/>
        </edge>
        <edge id="CAWU">
            <lane id="CAWU_0"/>
            <lane id="CAWU_1">
                <vehicle id="WN.SP.0.0" pos="7.28" speed="3.12" posLat="0.04" speedLat="0.20"/>
            </lane>
            <lane id="CAWU_2"/>
            <lane id="CAWU_3"/>
            <lane id="CAWU_4"/>
        </edge>
        <edge id="JSNU">
            <lane id="JSNU_0"/>
            <lane id="JSNU_1">
                <vehicle id="NE.SP.0.0" pos="7.28" speed="3.12" posLat="0.00" speedLat="0.00"/>
            </lane>
            <lane id="JSNU_2"/>
        </edge>
        <edge id="JSSU">
            <lane id="JSSU_0"/>
            <lane id="JSSU_1">
                <vehicle id="SW.SP.0.0" pos="7.28" speed="3.12" posLat="0.00" speedLat="0.00"/>
            </lane>
            <lane id="JSSU_2"/>
        </edge>
    </timestep>
    <timestep time="1.40">
        <edge id="CAEU">
            <lane id="CAEU_0"/>
            <lane id="CAEU_1">
                <vehicle id="ES.SP.0.0" pos="8.01" speed="3.63" posLat="0.24" speedLat="0.60"/>
            </lane>
            <lane id="CAEU_2"/>
            <lane id="CAEU_3"/>
        </edge>
        <edge id="CAWU">
            <lane id="CAWU_0"/>
            <lane id="CAWU_1">
                <vehicle id="WN.SP.0.0" pos="8.01" speed="3.64" posLat="0.12" speedLat="0.40"/>
            </lane>
            <lane id="CAWU_2"/>
            <lane id="CAWU_3"/>
            <lane id="CAWU_4"/>
        </edge>
        <edge id="JSNU">
            <lane id="JSNU_0"/>
            <lane id="JSNU_1">
                <vehicle id="NE.SP.0.0" pos="8.01" speed="3.63" posLat="0.00" speedLat="0.00"/>
            </lane>
            <lane id="JSNU_2"/>
        </edge>
        <edge id="JSSU">
            <lane id="JSSU_0"/>
            <lane id="JSSU_1">
                <vehicle id="SW.SP.0.0" pos="8.01" speed="3.64" posLat="0.00" speedLat="0.00"/>
            </lane>
            <lane id="JSSU_2"/>
        </edge>
    </timestep>
    <timestep time="1.60">
        <edge id="CAEU">
            <lane id="CAEU_0"/>
            <lane id="CAEU_1">
                <vehicle id="ES.SP.0.0" pos="8.84" speed="4.14" posLat="0.40" speedLat="0.80"/>
            </lane>
            <lane id="CAEU_2"/>
            <lane id="CAEU_3"/>
        </edge>
        <edge id="CAWU">
            <lane id="CAWU_0"/>
            <lane id="CAWU_1">
                <vehicle id="WN.SP.0.0" pos="8.84" speed="4.15" posLat="0.24" speedLat="0.60"/>
            </lane>
            <lane id="CAWU_2"/>
            <lane id="CAWU_3"/>
            <lane id="CAWU_4"/>
        </edge>
        <edge id="JSNU">
            <lane id="JSNU_0"/>
            <lane id="JSNU_1">
                <vehicle id="NE.SP.0.0" pos="8.84" speed="4.14" posLat="0.00" speedLat="0.00"/>
            </lane>
            <lane id="JSNU_2"/>
        </edge>
        <edge id="JSSU">
            <lane id="JSSU_0"/>
            <lane id="JSSU_1">
                <vehicle id="SW.SP.0.0" pos="8.84" speed="4.15" posLat="0.00" speedLat="0.00"/>
            </lane>
            <lane id="JSSU_2"/>
        </edge>
    </timestep>
    <timestep time="1.80">
        <edge id="CAEU">
            <lane id="CAEU_0"/>
            <lane id="CAEU_1">
                <vehicle id="ES.SP.0.0" pos="9.76" speed="4.64" posLat="0.60" speedLat="1.00"/>
            </lane>
            <lane id="CAEU_2"/>
            <lane id="CAEU_3"/>
        </edge>
        <edge id="CAWU">
            <lane id="CAWU_0"/>
            <lane id="CAWU_1">
                <vehicle id="WN.SP.0.0" pos="9.78" speed="4.67" posLat="0.40" speedLat="0.80"/>
            </lane>
            <lane id="CAWU_2"/>
            <lane id="CAWU_3"/>
            <lane id="CAWU_4"/>
        </edge>
        <edge id="JSNU">
            <lane id="JSNU_0"/>
            <lane id="JSNU_1">
                <vehicle id="NE.SP.0.0" pos="9.77" speed="4.65" posLat="0.00" speedLat="0.00"/>
            </lane>
            <lane id="JSNU_2"/>
        </edge>
        <edge id="JSSU">
            <lane id="JSSU_0"/>
            <lane id="JSSU_1">
                <vehicle id="SW.SP.0.0" pos="9.77" speed="4.67" posLat="0.00" speedLat="0.00"/>
            </lane>
            <lane id="JSSU_2"/>
        </edge>
    </timestep>
    <timestep time="2.00">
        <edge id="CAEU">
            <lane id="CAEU_0"/>
            <lane id="CAEU_1">
                <vehicle id="ES.SP.0.0" pos="10.79" speed="5.14" posLat="0.80" speedLat="1.00"/>
            </lane>
            <lane id="CAEU_2"/>
            <lane id="CAEU_3"/>
        </edge>
        <edge id="CAWU">
            <lane id="CAWU_0"/>
            <lane id="CAWU_1">
                <vehicle id="WN.SP.0.0" pos="10.81" speed="5.19" posLat="0.60" speedLat="1.00"/>
            </lane>
            <lane id="CAWU_2"/>
            <lane id="CAWU_3"/>
            <lane id="CAWU_4"/>
        </edge>
        <edge id="JSNU">
            <lane id="JSNU_0"/>
            <lane id="JSNU_1">
                <vehicle id="NE.SP.0.0" pos="10.79" speed="5.14" posLat="0.00" speedLat="0.00"/>
            </lane>
            <lane id="JSNU_2"/>
        </edge>
        <edge id="JSSU">
            <lane id="JSSU_0"/>
            <lane id="JSSU_1">
                <vehicle id="SW.SP.0.0" pos="10.81" speed="5.18" posLat="0.00" speedLat="0.00"/>
            </lane>
            <lane id="JSSU_2"/>
        </edge>
    </timestep>
    <timestep time="2.20">
        <edge id="CAEU">
            <lane id="CAEU_0"/>
            <lane id="CAEU_1">
                <vehicle id="ES.MP.0.0" pos="5.10" speed="0.00" posLat="0.00" speedLat="0.00"/>
                <vehicle id="ES.SP.0.0" pos="11.92" speed="5.64" posLat="1.00" speedLat="1.00"/>
            </lane>
            <lane id="CAEU_2"/>
            <lane id="CAEU_3"/>
        </edge>
        <edge id="CAWU">
            <lane id="CAWU_0"/>
            <lane id="CAWU_1">
                <vehicle id="WN.MP.0.0" pos="5.10" speed="0.00" posLat="0.00" speedLat="0.00"/>
                <vehicle id="WN.SP.0.0" pos="11.95" speed="5.70" posLat="0.80" speedLat="1.00"/>
            </lane>
            <lane id="CAWU_2"/>
            <lane id="CAWU_3"/>
            <lane id="CAWU_4"/>
        </edge>
        <edge id="JSNU">
            <lane id="JSNU_0"/>
            <lane id="JSNU_1">
                <vehicle id="NE.MP.0.0" pos="5.10" speed="0.00" posLat="0.00" speedLat="0.00"/>
                <vehicle id="NE.SP.0.0" pos="11.92" speed="5.63" posLat="0.00" speedLat="0.00"/>
            </lane>
            <lane id="JSNU_2"/>
        </edge>
        <edge id="JSSU">
            <lane id="JSSU_0"/>
            <lane id="JSSU_1">
                <vehicle id="SW.MP.0.0" pos="5.10" speed="0.00" posLat="0.00" speedLat="0.00"/>
                <vehicle id="SW.SP.0.0" pos="11.95" speed="5.69" posLat="0.04" speedLat="0.20"/>
            </lane>
            <lane id="JSSU_2"/>
        </edge>
    </timestep>
    <timestep time="2.40">
        <edge id="CAEU">
            <lane id="CAEU_0"/>
            <lane id="CAEU_1">
                <vehicle id="ES.MP.0.0" pos="5.13" speed="0.14" posLat="0.00" speedLat="0.00"/>
                <vehicle id="ES.SP.0.0" pos="13.14" speed="6.12" posLat="1.20" speedLat="1.00"/>
            </lane>
            <lane id="CAEU_2"/>
            <lane id="CAEU_3"/>
        </edge>
        <edge id="CAWU">
            <lane id="CAWU_0"/>
            <lane id="CAWU_1">
                <vehicle id="WN.MP.0.0" pos="5.13" speed="0.15" posLat="0.00" speedLat="0.00"/>
                <vehicle id="WN.SP.0.0" pos="13.19" speed="6.21" posLat="1.00" speedLat="1.00"/>
            </lane>
            <lane id="CAWU_2"/>
            <lane id="CAWU_3"/>
            <lane id="CAWU_4"/>
        </edge>
        <edge id="JSNU">
            <lane id="JSNU_0"/>
            <lane id="JSNU_1">
                <vehicle id="NE.MP.0.0" pos="5.13" speed="0.14" posLat="0.00" speedLat="0.00"/>
                <vehicle id="NE.SP.0.0" pos="13.14" speed="6.10" posLat="0.00" speedLat="0.00"/>
            </lane>
            <lane id="JSNU_2"/>
        </edge>
        <edge id="JSSU">
            <lane id="JSSU_0"/>
            <lane id="JSSU_1">
                <vehicle id="SW.MP.0.0" pos="5.13" speed="0.15" posLat="0.00" speedLat="0.00"/>
                <vehicle id="SW.SP.0.0" pos="13.19" speed="6.20" posLat="0.12" speedLat="0.40"/>
            </lane>
            <lane id="JSSU_2"/>
        </edge>
    </timestep>
    <timestep time="2.60">
        <edge id="CAEU">
            <lane id="CAEU_0"/>
            <lane id="CAEU_1">
                <vehicle id="ES.MP.0.0" pos="5.23" speed="0.51" posLat="0.00" speedLat="0.00"/>
                <vehicle id="ES.SP.0.0" pos="14.46" speed="6.59" posLat="1.40" speedLat="1.00"/>
            </lane>
            <lane id="CAEU_2"/>
            <lane id="CAEU_3"/>
        </edge>
        <edge id="CAWU">
            <lane id="CAWU_0"/>
            <lane id="CAWU_1">
                <vehicle id="WN.MP.0.0" pos="5.24" speed="0.53" posLat="0.00" speedLat="0.00"/>
                <vehicle id="WN.SP.0.0" pos="14.54" speed="6.71" posLat="1.20" speedLat="1.00"/>
            </lane>
            <lane id="CAWU_2"/>
            <lane id="CAWU_3"/>
            <lane id="CAWU_4"/>
        </edge>
        <edge id="JSNU">
            <lane id="JSNU_0"/>
            <lane id="JSNU_1">
                <vehicle id="NE.MP.0.0" pos="5.23" speed="0.51" posLat="0.00" speedLat="0.00"/>
                <vehicle id="NE.SP.0.0" pos="14.45" speed="6.55" posLat="0.00" speedLat="0.00"/>
            </lane>
            <lane id="JSNU_2"/>
        </edge>
        <edge id="JSSU">
            <lane id="JSSU_0"/>
            <lane id="JSSU_1">
                <vehicle id="SW.MP.0.0" pos="5.24" speed="0.53" posLat="0.00" speedLat="0.00"/>
                <vehicle id="SW.SP.0.0" pos="14.53" speed="6.70" posLat="0.24" speedLat="0.60"/>
            </lane>
            <lane id="JSSU_2"/>
        </edge>
    </timestep>
    <timestep time="2.80">
        <edge id="CAEU">
            <lane id="CAEU_0"/>
            <lane id="CAEU_1">
                <vehicle id="ES.MP.0.0" pos="5.42" speed="0.95" posLat="0.00" speedLat="0.00"/>
                <vehicle id="ES.SP.0.0" pos="15.87" speed="7.04" posLat="1.60" speedLat="1.00"/>
            </lane>
            <lane id="CAEU_2"/>
            <lane id="CAEU_3"/>
        </edge>
        <edge id="CAWU">
            <lane id="CAWU_0"/>
            <lane id="CAWU_1">
                <vehicle id="WN.MP.0.0" pos="5.43" speed="0.97" posLat="0.00" speedLat="0.00"/>
                <vehicle id="WN.SP.0.0" pos="15.98" speed="7.22" posLat="1.40" speedLat="1.00"/>
            </lane>
            <lane id="CAWU_2"/>
            <lane id="CAWU_3"/>
            <lane id="CAWU_4"/>
        </edge>
        <edge id="JSNU">
            <lane id="JSNU_0"/>
            <lane id="JSNU_1">
                <vehicle id="NE.MP.0.0" pos="5.42" speed="0.95" posLat="0.00" speedLat="0.00"/>
                <vehicle id="NE.SP.0.0" pos="15.85" speed="6.99" posLat="0.00" speedLat="0.00"/>
            </lane>
            <lane id="JSNU_2"/>
        </edge>
        <edge id="JSSU">
            <lane id="JSSU_0"/>
            <lane id="JSSU_1">
                <vehicle id="SW.MP.0.0" pos="5.43" speed="0.97" posLat="0.00" speedLat="0.00"/>
                <vehicle id="SW.SP.0.0" pos="15.97" speed="7.20" posLat="0.40" speedLat="0.80"/>
            </lane>
            <lane id="JSSU_2"/>
        </edge>
    </timestep>
    <timestep time="3.00">
        <edge id="CAEU">
            <lane id="CAEU_0"/>
            <lane id="CAEU_1">
                <vehicle id="ES.MP.0.0" pos="5.70" speed="1.42" posLat="0.00" speedLat="0.00"/>
            </lane>
            <lane id="CAEU_2">
                <vehicle id="ES.SP.0.0" pos="17.36" speed="7.48" posLat="-1.70" speedLat="1.00"/>
            </lane>
            <lane id="CAEU_3"/>
        </edge>
        <edge id="CAWU">
            <lane id="CAWU_0"/>
            <lane id="CAWU_1">
                <vehicle id="WN.MP.0.0" pos="5.72" speed="1.44" posLat="0.00" speedLat="0.00"/>
                <vehicle id="WN.SP.0.0" pos="17.52" speed="7.71" posLat="1.60" speedLat="1.00"/>
            </lane>
            <lane id="CAWU_2"/>
            <lane id="CAWU_3"/>
            <lane id="CAWU_4"/>
        </edge>
        <edge id="JSNU">
            <lane id="JSNU_0"/>
            <lane id="JSNU_1">
                <vehicle id="NE.MP.0.0" pos="5.70" speed="1.41" posLat="0.00" speedLat="0.00"/>
                <vehicle id="NE.SP.0.0" pos="17.33" speed="7.39" posLat="0.00" speedLat="0.00"/>
            </lane>
            <lane id="JSNU_2"/>
        </edge>
        <edge id="JSSU">
            <lane id="JSSU_0"/>
            <lane id="JSSU_1">
                <vehicle id="SW.MP.0.0" pos="5.72" speed="1.44" posLat="0.00" speedLat="0.00"/>
                <vehicle id="SW.SP.0.0" pos="17.51" speed="7.70" posLat="0.60" speedLat="1.00"/>
            </lane>
            <lane id="JSSU_2"/>
        </edge>
    </timestep>
    <timestep time="3.20">
        <edge id="CAEU">
            <lane id="CAEU_0"/>
            <lane id="CAEU_1">
                <vehicle id="ES.MP.0.0" pos="6.08" speed="1.90" posLat="0.00" speedLat="0.00"/>
            </lane>
            <lane id="CAEU_2">
                <vehicle id="ES.SP.0.0" pos="18.94" speed="7.89" posLat="-1.50" speedLat="1.00"/>
            </lane>
            <lane id="CAEU_3"/>
        </edge>
        <edge id="CAWU">
            <lane id="CAWU_0"/>
            <lane id="CAWU_1">
                <vehicle id="WN.MP.0.0" pos="6.10" speed="1.92" posLat="0.00" speedLat="0.00"/>
            </lane>
            <lane id="CAWU_2">
                <vehicle id="WN.SP.0.0" pos="19.16" speed="8.20" posLat="-1.70" speedLat="1.00"/>
            </lane>
            <lane id="CAWU_3"/>
            <lane id="CAWU_4"/>
        </edge>
        <edge id="JSNU">
            <lane id="JSNU_0"/>
            <lane id="JSNU_1">
                <vehicle id="NE.MP.0.0" pos="6.08" speed="1.89" posLat="0.00" speedLat="0.00"/>
                <vehicle id="NE.SP.0.0" pos="18.88" speed="7.78" posLat="0.00" speedLat="0.00"/>
            </lane>
            <lane id="JSNU_2"/>
        </edge>
        <edge id="JSSU">
            <lane id="JSSU_0"/>
            <lane id="JSSU_1">
                <vehicle id="SW.MP.0.0" pos="6.10" speed="1.92" posLat="0.00" speedLat="0.00"/>
                <vehicle id="SW.SP.0.0" pos="19.14" speed="8.18" posLat="0.80" speedLat="1.00"/>
            </lane>
            <lane id="JSSU_2"/>
        </edge>
    </timestep>
    <timestep time="3.40">
        <edge id="CAEU">
            <lane id="CAEU_0"/>
            <lane id="CAEU_1">
                <vehicle id="ES.MP.0.0" pos="6.56" speed="2.38" posLat="0.04" speedLat="0.20"/>
            </lane>
            <lane id="CAEU_2">
                <vehicle id="ES.SP.0.0" pos="20.61" speed="8.34" posLat="-1.30" speedLat="1.00"/>
            </lane>
            <lane id="CAEU_3"/>
        </edge>
        <edge id="CAWU">
            <lane id="CAWU_0"/>
            <lane id="CAWU_1">
                <vehicle id="WN.MP.0.0" pos="6.59" speed="2.41" posLat="0.00" speedLat="0.00"/>
            </lane>
            <lane id="CAWU_2">
                <vehicle id="WN.SP.0.0" pos="20.90" speed="8.68" posLat="-1.50" speedLat="1.00"/>
            </lane>
            <lane id="CAWU_3"/>
            <lane id="CAWU_4"/>
        </edge>
        <edge id="JSNU">
            <lane id="JSNU_0"/>
            <lane id="JSNU_1">
                <vehicle id="NE.MP.0.0" pos="6.56" speed="2.38" posLat="0.00" speedLat="0.00"/>
                <vehicle id="NE.SP.0.0" pos="20.51" speed="8.13" posLat="0.00" speedLat="0.00"/>
            </lane>
            <lane id="JSNU_2"/>
        </edge>
        <edge id="JSSU">
            <lane id="JSSU_0"/>
            <lane id="JSSU_1">
                <vehicle id="SW.MP.0.0" pos="6.58" speed="2.41" posLat="0.00" speedLat="0.00"/>
                <vehicle id="SW.SP.0.0" pos="20.88" speed="8.66" posLat="1.00" speedLat="1.00"/>
            </lane>
            <lane id="JSSU_2"/>
        </edge>
    </timestep>
    <timestep time="3.60">
        <edge id="CAEU">
            <lane id="CAEU_0"/>
            <lane id="CAEU_1">
                <vehicle id="ES.MP.0.0" pos="6.92" speed="1.79" posLat="0.12" speedLat="0.40"/>
            </lane>
            <lane id="CAEU_2">
                <vehicle id="ES.SP.0.0" pos="22.36" speed="8.77" posLat="-1.10" speedLat="1.00"/>
            </lane>
            <lane id="CAEU_3"/>
        </edge>
        <edge id="CAWU">
            <lane id="CAWU_0"/>
            <lane id="CAWU_1">
                <vehicle id="WN.MP.0.0" pos="7.17" speed="2.91" posLat="0.04" speedLat="0.20"/>
            </lane>
            <lane id="CAWU_2">
                <vehicle id="WN.SP.0.0" pos="22.73" speed="9.16" posLat="-1.30" speedLat="1.00"/>
            </lane>
            <lane id="CAWU_3"/>
            <lane id="CAWU_4"/>
        </edge>
        <edge id="JSNU">
            <lane id="JSNU_0"/>
            <lane id="JSNU_1">
                <vehicle id="NE.MP.0.0" pos="7.13" speed="2.86" posLat="0.00" speedLat="0.00"/>
                <vehicle id="NE.SP.0.0" pos="22.20" speed="8.46" posLat="0.00" speedLat="0.00"/>
            </lane>
            <lane id="JSNU_2"/>
        </edge>
        <edge id="JSSU">
            <lane id="JSSU_0"/>
            <lane id="JSSU_1">
                <vehicle id="SW.MP.0.0" pos="7.16" speed="2.90" posLat="0.00" speedLat="0.00"/>
                <vehicle id="SW.SP.0.0" pos="22.70" speed="9.12" posLat="1.20" speedLat="1.00"/>
            </lane>
            <lane id="JSSU_2"/>
        </edge>
    </timestep>
    <timestep time="3.80">
        <edge id="CAEU">
            <lane id="CAEU_0"/>
            <lane id="CAEU_1">
                <vehicle id="ES.MP.0.0" pos="7.37" speed="2.28" posLat="0.24" speedLat="0.60"/>
            </lane>
            <lane id="CAEU_2">
                <vehicle id="ES.SP.0.0" pos="24.20" speed="9.18" posLat="-0.90" speedLat="1.00"/>
            </lane>
            <lane id="CAEU_3"/>
        </edge>
        <edge id="CAWU">
            <lane id="CAWU_0"/>
            <lane id="CAWU_1">
                <vehicle id="WN.MP.0.0" pos="7.85" speed="3.41" posLat="0.12" speedLat="0.40"/>
            </lane>
            <lane id="CAWU_2">
                <vehicle id="WN.SP.0.0" pos="24.66" speed="9.62" posLat="-1.10" speedLat="1.00"/>
            </lane>
            <lane id="CAWU_3"/>
            <lane id="CAWU_4"/>
        </edge>
        <edge id="JSNU">
            <lane id="JSNU_0"/>
            <lane id="JSNU_1">
                <vehicle id="NE.MP.0.0" pos="7.80" speed="3.35" posLat="0.00" speedLat="0.00"/>
                <vehicle id="NE.SP.0.0" pos="23.95" speed="8.75" posLat="0.00" speedLat="0.00"/>
            </lane>
            <lane id="JSNU_2"/>
        </edge>
        <edge id="JSSU">
            <lane id="JSSU_0"/>
            <lane id="JSSU_1">
                <vehicle id="SW.MP.0.0" pos="7.84" speed="3.40" posLat="0.00" speedLat="0.00"/>
                <vehicle id="SW.SP.0.0" pos="24.61" speed="9.57" posLat="1.40" speedLat="1.00"/>
            </lane>
            <lane id="JSSU_2"/>
        </edge>
    </timestep>
    <timestep time="4.00">
        <edge id="CAEU">
            <lane id="CAEU_0"/>
            <lane id="CAEU_1">
                <vehicle id="ES.MP.0.0" pos="7.93" speed="2.78" posLat="0.40" speedLat="0.80"/>
            </lane>
            <lane id="CAEU_2">
                <vehicle id="ES.SP.0.0" pos="26.11" speed="9.57" posLat="-0.70" speedLat="1.00"/>
            </lane>
            <lane id="CAEU_3"/>
        </edge>
        <edge id="CAWU">
            <lane id="CAWU_0"/>
            <lane id="CAWU_1">
                <vehicle id="WN.MP.0.0" pos="8.63" speed="3.88" posLat="0.24" speedLat="0.60"/>
            </lane>
            <lane id="CAWU_2">
                <vehicle id="WN.SP.0.0" pos="26.67" speed="10.07" posLat="-0.90" speedLat="1.00"/>
            </lane>
            <lane id="CAWU_3"/>
            <lane id="CAWU_4"/>
        </edge>
        <edge id="JSNU">
            <lane id="JSNU_0"/>
            <lane id="JSNU_1">
                <vehicle id="NE.MP.0.0" pos="8.57" speed="3.84" posLat="0.00" speedLat="0.00"/>
                <vehicle id="NE.SP.0.0" pos="25.75" speed="9.01" posLat="0.00" speedLat="0.00"/>
            </lane>
            <lane id="JSNU_2"/>
        </edge>
        <edge id="JSSU">
            <lane id="JSSU_0"/>
            <lane id="JSSU_1">
                <vehicle id="SW.MP.0.0" pos="8.62" speed="3.90" posLat="0.00" speedLat="0.00"/>
                <vehicle id="SW.SP.0.0" pos="26.62" speed="10.01" posLat="1.60" speedLat="1.00"/>
            </lane>
            <lane id="JSSU_2"/>
        </edge>
    </timestep>
    <timestep time="4.20">
        <edge id="CAEU">
            <lane id="CAEU_0"/>
            <lane id="CAEU_1">
                <vehicle id="ES.MP.0.0" pos="8.58" speed="3.27" posLat="0.60" speedLat="1.00"/>
            </lane>
            <lane id="CAEU_2">
                <vehicle id="ES.SP.0.0" pos="28.10" speed="9.94" posLat="-0.50" speedLat="1.00"/>
            </lane>
            <lane id="CAEU_3"/>
        </edge>
        <edge id="CAWU">