<?xml version="1.0" encoding="UTF-8"?>

<!-- generated on 08/31/20 12:47:37 by Eclipse SUMO Version 1.6.0
<configuration xmlns:xsi="http://www.w3.org/2001/XMLSchema-instance" xsi:noNamespaceSchemaLocation="http://sumo.dlr.de/xsd/sumoConfiguration.xsd">

    <input>
        <net-file value="./project/ITLS.net.xml"/>
        <route-files value="./project/ITLS.rou.xml"/>
        <additional-files value="./project/ITLS.add.xml"/>
    </input>

    <output>
        <tripinfo-output value="./project/./output/output-tripinfos.xml"/>
    </output>

    <time>
        <begin value="0"/>
        <step-length value="0.2"/>
    </time>

    <processing>
        <lateral-resolution value="0.8"/>
    </processing>

    <report>
        <verbose value="true"/>
        <no-warnings value="true"/>
        <duration-log.disable value="false"/>
    </report>

    <traci_server>
        <remote-port value="61451"/>
    </traci_server>

    <random_number>
        <random value="true"/>
    </random_number>

    <gui_only>
        <gui-settings-file value="./project/view.settings.xml"/>
        <quit-on-end value="true"/>
        <start value="true"/>
        <tracker-interval value="0.2"/>
    </gui_only>

</configuration>
-->

<detector xmlns:xsi="http://www.w3.org/2001/XMLSchema-instance" xsi:noNamespaceSchemaLocation="http://sumo.dlr.de/xsd/det_e2_file.xsd">
   <interval begin="0.00" end="15.00" id="W.01" sampledSeconds="0.00" nVehEntered="0" nVehLeft="0" nVehSeen="0" meanSpeed="-1.00" meanTimeLoss="-1.00" meanOccupancy="0.00" maxOccupancy="0.00" meanMaxJamLengthInVehicles="0.00" meanMaxJamLengthInMeters="0.00" maxJamLengthInVehicles="0" maxJamLengthInMeters="0.00" jamLengthInVehiclesSum="0" jamLengthInMetersSum="0.00" meanHaltingDuration="0.00" maxHaltingDuration="0.00" haltingDurationSum="0.00" meanIntervalHaltingDuration="0.00" maxIntervalHaltingDuration="0.00" intervalHaltingDurationSum="0.00" startedHalts="0.00" meanVehicleNumber="0.00" maxVehicleNumber="0" />
   <interval begin="0.00" end="15.00" id="W.02" sampledSeconds="0.00" nVehEntered="0" nVehLeft="0" nVehSeen="0" meanSpeed="-1.00" meanTimeLoss="-1.00" meanOccupancy="0.00" maxOccupancy="0.00" meanMaxJamLengthInVehicles="0.00" meanMaxJamLengthInMeters="0.00" maxJamLengthInVehicles="0" maxJamLengthInMeters="0.00" jamLengthInVehiclesSum="0" jamLengthInMetersSum="0.00" meanHaltingDuration="0.00" maxHaltingDuration="0.00" haltingDurationSum="0.00" meanIntervalHaltingDuration="0.00" maxIntervalHaltingDuration="0.00" intervalHaltingDurationSum="0.00" startedHalts="0.00" meanVehicleNumber="0.00" maxVehicleNumber="0" />
   <interval begin="0.00" end="15.00" id="W.03" sampledSeconds="0.00" nVehEntered="0" nVehLeft="0" nVehSeen="0" meanSpeed="-1.00" meanTimeLoss="-1.00" meanOccupancy="0.00" maxOccupancy="0.00" meanMaxJamLengthInVehicles="0.00" meanMaxJamLengthInMeters="0.00" maxJamLengthInVehicles="0" maxJamLengthInMeters="0.00" jamLengthInVehiclesSum="0" jamLengthInMetersSum="0.00" meanHaltingDuration="0.00" maxHaltingDuration="0.00" haltingDurationSum="0.00" meanIntervalHaltingDuration="0.00" maxIntervalHaltingDuration="0.00" intervalHaltingDurationSum="0.00" startedHalts="0.00" meanVehicleNumber="0.00" maxVehicleNumber="0" />
   <interval begin="0.00" end="15.00" id="W.04" sampledSeconds="4.66" nVehEntered="2" nVehLeft="0" nVehSeen="2" meanSpeed="14.10" meanTimeLoss="0.10" meanOccupancy="1.08" maxOccupancy="7.17" meanMaxJamLengthInVehicles="0.00" meanMaxJamLengthInMeters="0.00" maxJamLengthInVehicles="0" maxJamLengthInMeters="0.00" jamLengthInVehiclesSum="0" jamLengthInMetersSum="0.00" meanHaltingDuration="0.00" maxHaltingDuration="0.00" haltingDurationSum="0.00" meanIntervalHaltingDuration="0.00" maxIntervalHaltingDuration="0.00" intervalHaltingDurationSum="0.00" startedHalts="0.00" meanVehicleNumber="0.32" maxVehicleNumber="2" />
   <interval begin="0.00" end="15.00" id="W.05" sampledSeconds="1.85" nVehEntered="2" nVehLeft="1" nVehSeen="2" meanSpeed="14.23" meanTimeLoss="0.05" meanOccupancy="0.28" maxOccupancy="3.59" meanMaxJamLengthInVehicles="0.00" meanMaxJamLengthInMeters="0.00" maxJamLengthInVehicles="0" maxJamLengthInMeters="0.00" jamLengthInVehiclesSum="0" jamLengthInMetersSum="0.00" meanHaltingDuration="0.00" maxHaltingDuration="0.00" haltingDurationSum="0.00" meanIntervalHaltingDuration="0.00" maxIntervalHaltingDuration="0.00" intervalHaltingDurationSum="0.00" startedHalts="0.00" meanVehicleNumber="0.13" maxVehicleNumber="1" />
   <interval begin="0.00" end="15.00" id="E.01" sampledSeconds="1.18" nVehEntered="3" nVehLeft="2" nVehSeen="3" meanSpeed="6.93" meanTimeLoss="0.22" meanOccupancy="0.11" maxOccupancy="2.56" meanMaxJamLengthInVehicles="0.00" meanMaxJamLengthInMeters="0.00" maxJamLengthInVehicles="0" maxJamLengthInMeters="0.00" jamLengthInVehiclesSum="0" jamLengthInMetersSum="0.00" meanHaltingDuration="0.00" maxHaltingDuration="0.00" haltingDurationSum="0.00" meanIntervalHaltingDuration="0.00" maxIntervalHaltingDuration="0.00" intervalHaltingDurationSum="0.00" startedHalts="0.00" meanVehicleNumber="0.11" maxVehicleNumber="1" />
   <interval begin="0.00" end="15.00" id="E.02" sampledSeconds="12.47" nVehEntered="4" nVehLeft="3" nVehSeen="4" meanSpeed="10.56" meanTimeLoss="1.10" meanOccupancy="3.38" maxOccupancy="8.55" meanMaxJamLengthInVehicles="0.00" meanMaxJamLengthInMeters="0.00" maxJamLengthInVehicles="0" maxJamLengthInMeters="0.00" jamLengthInVehiclesSum="0" jamLengthInMetersSum="0.00" meanHaltingDuration="0.00" maxHaltingDuration="0.00" haltingDurationSum="0.00" meanIntervalHaltingDuration="0.00" maxIntervalHaltingDuration="0.00" intervalHaltingDurationSum="0.00" startedHalts="0.00" meanVehicleNumber="0.84" maxVehicleNumber="2" />
   <interval begin="0.00" end="15.00" id="E.03" sampledSeconds="13.27" nVehEntered="3" nVehLeft="2" nVehSeen="3" meanSpeed="12.71" meanTimeLoss="0.93" meanOccupancy="2.80" maxOccupancy="14.37" meanMaxJamLengthInVehicles="0.00" meanMaxJamLengthInMeters="0.00" maxJamLengthInVehicles="0" maxJamLengthInMeters="0.00" jamLengthInVehiclesSum="0" jamLengthInMetersSum="0.00" meanHaltingDuration="0.00" maxHaltingDuration="0.00" haltingDurationSum="0.00" meanIntervalHaltingDuration="0.00" maxIntervalHaltingDuration="0.00" intervalHaltingDurationSum="0.00" startedHalts="0.00" meanVehicleNumber="0.89" maxVehicleNumber="3" />
   <interval begin="0.00" end="15.00" id="E.04" sampledSeconds="3.27" nVehEntered="2" nVehLeft="1" nVehSeen="2" meanSpeed="9.34" meanTimeLoss="0.76" meanOccupancy="0.76" maxOccupancy="8.26" meanMaxJamLengthInVehicles="0.00" meanMaxJamLengthInMeters="0.00" maxJamLengthInVehicles="0" maxJamLengthInMeters="0.00" jamLengthInVehiclesSum="0" jamLengthInMetersSum="0.00" meanHaltingDuration="0.00" maxHaltingDuration="0.00" haltingDurationSum="0.00" meanIntervalHaltingDuration="0.00" maxIntervalHaltingDuration="0.00" intervalHaltingDurationSum="0.00" startedHalts="0.00" meanVehicleNumber="0.23" maxVehicleNumber="2" />
   <interval begin="0.00" end="15.00" id="E.05" sampledSeconds="2.60" nVehEntered="1" nVehLeft="0" nVehSeen="1" meanSpeed="13.15" meanTimeLoss="0.64" meanOccupancy="1.48" maxOccupancy="8.55" meanMaxJamLengthInVehicles="0.00" meanMaxJamLengthInMeters="0.00" maxJamLengthInVehicles="0" maxJamLengthInMeters="0.00" jamLengthInVehiclesSum="0" jamLengthInMetersSum="0.00" meanHaltingDuration="0.00" maxHaltingDuration="0.00" haltingDurationSum="0.00" meanIntervalHaltingDuration="0.00" maxIntervalHaltingDuration="0.00" intervalHaltingDurationSum="0.00" startedHalts="0.00" meanVehicleNumber="0.17" maxVehicleNumber="1" />
   <interval begin="0.00" end="15.00" id="E.06" sampledSeconds="1.27" nVehEntered="1" nVehLeft="1" nVehSeen="1" meanSpeed="12.56" meanTimeLoss="0.35" meanOccupancy="0.36" maxOccupancy="8.26" meanMaxJamLengthInVehicles="0.00" meanMaxJamLengthInMeters="0.00" maxJamLengthInVehicles="0" maxJamLengthInMeters="0.00" jamLengthInVehiclesSum="0" jamLengthInMetersSum="0.00" meanHaltingDuration="0.00" maxHaltingDuration="0.00" haltingDurationSum="0.00" meanIntervalHaltingDuration="0.00" maxIntervalHaltingDuration="0.00" intervalHaltingDurationSum="0.00" startedHalts="0.00" meanVehicleNumber="0.09" maxVehicleNumber="1" />
   <interval begin="0.00" end="15.00" id="S.01" sampledSeconds="0.27" nVehEntered="1" nVehLeft="0" nVehSeen="1" meanSpeed="10.40" meanTimeLoss="0.02" meanOccupancy="0.04" maxOccupancy="2.15" meanMaxJamLengthInVehicles="0.00" meanMaxJamLengthInMeters="0.00" maxJamLengthInVehicles="0" maxJamLengthInMeters="0.00" jamLengthInVehiclesSum="0" jamLengthInMetersSum="0.00" meanHaltingDuration="0.00" maxHaltingDuration="0.00" haltingDurationSum="0.00" meanIntervalHaltingDuration="0.00" maxIntervalHaltingDuration="0.00" intervalHaltingDurationSum="0.00" startedHalts="0.00" meanVehicleNumber="0.03" maxVehicleNumber="1" />
   <interval begin="0.00" end="15.00" id="S.02" sampledSeconds="12.21" nVehEntered="3" nVehLeft="2" nVehSeen="3" meanSpeed="8.56" meanTimeLoss="0.35" meanOccupancy="3.83" maxOccupancy="10.73" meanMaxJamLengthInVehicles="0.00" meanMaxJamLengthInMeters="0.00" maxJamLengthInVehicles="0" maxJamLengthInMeters="0.00" jamLengthInVehiclesSum="0" jamLengthInMetersSum="0.00" meanHaltingDuration="0.00" maxHaltingDuration="0.00" haltingDurationSum="0.00" meanIntervalHaltingDuration="0.00" maxIntervalHaltingDuration="0.00" intervalHaltingDurationSum="0.00" startedHalts="0.00" meanVehicleNumber="0.84" maxVehicleNumber="2" />
   <interval begin="0.00" end="15.00" id="S.03" sampledSeconds="19.17" nVehEntered="3" nVehLeft="0" nVehSeen="3" meanSpeed="8.52" meanTimeLoss="0.51" meanOccupancy="5.81" maxOccupancy="18.40" meanMaxJamLengthInVehicles="0.00" meanMaxJamLengthInMeters="0.00" maxJamLengthInVehicles="0" maxJamLengthInMeters="0.00" jamLengthInVehiclesSum="0" jamLengthInMetersSum="0.00" meanHaltingDuration="0.00" maxHaltingDuration="0.00" haltingDurationSum="0.00" meanIntervalHaltingDuration="0.00" maxIntervalHaltingDuration="0.00" intervalHaltingDurationSum="0.00" startedHalts="0.00" meanVehicleNumber="1.29" maxVehicleNumber="3" />
   <interval begin="0.00" end="15.00" id="N.01" sampledSeconds="0.00" nVehEntered="0" nVehLeft="0" nVehSeen="0" meanSpeed="-1.00" meanTimeLoss="-1.00" meanOccupancy="0.00" maxOccupancy="0.00" meanMaxJamLengthInVehicles="0.00" meanMaxJamLengthInMeters="0.00" maxJamLengthInVehicles="0" maxJamLengthInMeters="0.00" jamLengthInVehiclesSum="0" jamLengthInMetersSum="0.00" meanHaltingDuration="0.00" maxHaltingDuration="0.00" haltingDurationSum="0.00" meanIntervalHaltingDuration="0.00" maxIntervalHaltingDuration="0.00" intervalHaltingDurationSum="0.00" startedHalts="0.00" meanVehicleNumber="0.00" maxVehicleNumber="0" />
   <interval begin="0.00" end="15.00" id="N.02" sampledSeconds="0.00" nVehEntered="0" nVehLeft="0" nVehSeen="0" meanSpeed="-1.00" meanTimeLoss="-1.00" meanOccupancy="0.00" maxOccupancy="0.00" meanMaxJamLengthInVehicles="0.00" meanMaxJamLengthInMeters="0.00" maxJamLengthInVehicles="0" maxJamLengthInMeters="0.00" jamLengthInVehiclesSum="0" jamLengthInMetersSum="0.00" meanHaltingDuration="0.00" maxHaltingDuration="0.00" haltingDurationSum="0.00" meanIntervalHaltingDuration="0.00" maxIntervalHaltingDuration="0.00" intervalHaltingDurationSum="0.00" startedHalts="0.00" meanVehicleNumber="0.00" maxVehicleNumber="0" />
   <interval begin="0.00" end="15.00" id="N.03" sampledSeconds="0.00" nVehEntered="0" nVehLeft="0" nVehSeen="0" meanSpeed="-1.00" meanTimeLoss="-1.00" meanOccupancy="0.00" maxOccupancy="0.00" meanMaxJamLengthInVehicles="0.00" meanMaxJamLengthInMeters="0.00" maxJamLengthInVehicles="0" maxJamLengthInMeters="0.00" jamLengthInVehiclesSum="0" jamLengthInMetersSum="0.00" meanHaltingDuration="0.00" maxHaltingDuration="0.00" haltingDurationSum="0.00" meanIntervalHaltingDuration="0.00" maxIntervalHaltingDuration="0.00" intervalHaltingDurationSum="0.00" startedHalts="0.00" meanVehicleNumber="0.00" maxVehicleNumber="0" />
   <interval begin="15.00" end="30.00" id="W.01" sampledSeconds="32.37" nVehEntered="4" nVehLeft="2" nVehSeen="4" meanSpeed="14.56" meanTimeLoss="0.45" meanOccupancy="10.56" maxOccupancy="20.80" meanMaxJamLengthInVehicles="0.00" meanMaxJamLengthInMeters="0.00" maxJamLengthInVehicles="0" maxJamLengthInMeters="0.00" jamLengthInVehiclesSum="0" jamLengthInMetersSum="0.00" meanHaltingDuration="0.00" maxHaltingDuration="0.00" haltingDurationSum="0.00" meanIntervalHaltingDuration="0.00" maxIntervalHaltingDuration="0.00" intervalHaltingDurationSum="0.00" startedHalts="0.00" meanVehicleNumber="2.20" maxVehicleNumber="4" />
   <interval begin="15.00" end="30.00" id="W.02" sampledSeconds="0.00" nVehEntered="0" nVehLeft="0" nVehSeen="0" meanSpeed="-1.00" meanTimeLoss="-1.00" meanOccupancy="0.00" maxOccupancy="0.00" meanMaxJamLengthInVehicles="0.00" meanMaxJamLengthInMeters="0.00" maxJamLengthInVehicles="0" maxJamLengthInMeters="0.00" jamLengthInVehiclesSum="0" jamLengthInMetersSum="0.00" meanHaltingDuration="0.00" maxHaltingDuration="0.00" haltingDurationSum="0.00" meanIntervalHaltingDuration="0.00" maxIntervalHaltingDuration="0.00" intervalHaltingDurationSum="0.00" startedHalts="0.00" meanVehicleNumber="0.00" maxVehicleNumber="0" />
   <interval begin="15.00" end="30.00" id="W.03" sampledSeconds="0.00" nVehEntered="0" nVehLeft="0" nVehSeen="0" meanSpeed="-1.00" meanTimeLoss="-1.00" meanOccupancy="0.00" maxOccupancy="0.00" meanMaxJamLengthInVehicles="0.00" meanMaxJamLengthInMeters="0.00" maxJamLengthInVehicles="0" maxJamLengthInMeters="0.00" jamLengthInVehiclesSum="0" jamLengthInMetersSum="0.00" meanHaltingDuration="0.00" maxHaltingDuration="0.00" haltingDurationSum="0.00" meanIntervalHaltingDuration="0.00" maxIntervalHaltingDuration="0.00" intervalHaltingDurationSum="0.00" startedHalts="0.00" meanVehicleNumber="0.00" maxVehicleNumber="0" />
   <interval begin="15.00" end="30.00" id="W.04" sampledSeconds="23.40" nVehEntered="0" nVehLeft="1" nVehSeen="2" meanSpeed="8.27" meanTimeLoss="5.30" meanOccupancy="5.60" maxOccupancy="7.17" meanMaxJamLengthInVehicles="0.35" meanMaxJamLengthInMeters="1.73" maxJamLengthInVehicles="1" maxJamLengthInMeters="5.00" jamLengthInVehiclesSum="26" jamLengthInMetersSum="130.00" meanHaltingDuration="6.20" maxHaltingDuration="6.20" haltingDurationSum="6.20" meanIntervalHaltingDuration="6.20" maxIntervalHaltingDuration="6.20" intervalHaltingDurationSum="6.20" startedHalts="1.00" meanVehicleNumber="1.56" maxVehicleNumber="2" />
   <interval begin="15.00" end="30.00" id="W.05" sampledSeconds="6.65" nVehEntered="1" nVehLeft="1" nVehSeen="2" meanSpeed="2.74" meanTimeLoss="2.74" meanOccupancy="1.58" maxOccupancy="3.59" meanMaxJamLengthInVehicles="0.13" meanMaxJamLengthInMeters="0.67" maxJamLengthInVehicles="1" maxJamLengthInMeters="5.00" jamLengthInVehiclesSum="10" jamLengthInMetersSum="50.00" meanHaltingDuration="3.00" maxHaltingDuration="3.00" haltingDurationSum="3.00" meanIntervalHaltingDuration="3.00" maxIntervalHaltingDuration="3.00" intervalHaltingDurationSum="3.00" startedHalts="1.00" meanVehicleNumber="0.45" maxVehicleNumber="1" />
   <interval begin="15.00" end="30.00" id="E.01" sampledSeconds="20.69" nVehEntered="4" nVehLeft="2" nVehSeen="5" meanSpeed="12.15" meanTimeLoss="1.18" meanOccupancy="4.86" maxOccupancy="14.66" meanMaxJamLengthInVehicles="0.00" meanMaxJamLengthInMeters="0.00" maxJamLengthInVehicles="0" maxJamLengthInMeters="0.00" jamLengthInVehiclesSum="0" jamLengthInMetersSum="0.00" meanHaltingDuration="0.00" maxHaltingDuration="0.00" haltingDurationSum="0.00" meanIntervalHaltingDuration="0.00" maxIntervalHaltingDuration="0.00" intervalHaltingDurationSum="0.00" startedHalts="0.00" meanVehicleNumber="1.41" maxVehicleNumber="3" />
   <interval begin="15.00" end="30.00" id="E.02" sampledSeconds="31.98" nVehEntered="2" nVehLeft="2" nVehSeen="3" meanSpeed="13.85" meanTimeLoss="0.96" meanOccupancy="10.41" maxOccupancy="14.66" meanMaxJamLengthInVehicles="0.00" meanMaxJamLengthInMeters="0.00" maxJamLengthInVehicles="0" maxJamLengthInMeters="0.00" jamLengthInVehiclesSum="0" jamLengthInMetersSum="0.00" meanHaltingDuration="0.00" maxHaltingDuration="0.00" haltingDurationSum="0.00" meanIntervalHaltingDuration="0.00" maxIntervalHaltingDuration="0.00" intervalHaltingDurationSum="0.00" startedHalts="0.00" meanVehicleNumber="2.15" maxVehicleNumber="3" />
   <interval begin="15.00" end="30.00" id="E.03" sampledSeconds="1.40" nVehEntered="0" nVehLeft="1" nVehSeen="1" meanSpeed="6.01" meanTimeLoss="0.83" meanOccupancy="0.29" maxOccupancy="3.06" meanMaxJamLengthInVehicles="0.00" meanMaxJamLengthInMeters="0.00" maxJamLengthInVehicles="0" maxJamLengthInMeters="0.00" jamLengthInVehiclesSum="0" jamLengthInMetersSum="0.00" meanHaltingDuration="0.00" maxHaltingDuration="0.00" haltingDurationSum="0.00" meanIntervalHaltingDuration="0.00" maxIntervalHaltingDuration="0.00" intervalHaltingDurationSum="0.00" startedHalts="0.00" meanVehicleNumber="0.09" maxVehicleNumber="1" />
   <interval begin="15.00" end="30.00" id="E.04" sampledSeconds="6.80" nVehEntered="1" nVehLeft="2" nVehSeen="2" meanSpeed="6.79" meanTimeLoss="1.92" meanOccupancy="1.38" maxOccupancy="6.11" meanMaxJamLengthInVehicles="0.00" meanMaxJamLengthInMeters="0.00" maxJamLengthInVehicles="0" maxJamLengthInMeters="0.00" jamLengthInVehiclesSum="0" jamLengthInMetersSum="0.00" meanHaltingDuration="0.00" maxHaltingDuration="0.00" haltingDurationSum="0.00" meanIntervalHaltingDuration="0.00" maxIntervalHaltingDuration="0.00" intervalHaltingDurationSum="0.00" startedHalts="0.00" meanVehicleNumber="0.45" maxVehicleNumber="2" />
   <interval begin="15.00" end="30.00" id="E.05" sampledSeconds="26.00" nVehEntered="2" nVehLeft="1" nVehSeen="3" meanSpeed="3.07" meanTimeLoss="7.10" meanOccupancy="6.84" maxOccupancy="11.61" meanMaxJamLengthInVehicles="1.01" meanMaxJamLengthInMeters="5.59" maxJamLengthInVehicles="2" maxJamLengthInMeters="11.96" jamLengthInVehiclesSum="76" jamLengthInMetersSum="419.50" meanHaltingDuration="8.60" maxHaltingDuration="11.40" haltingDurationSum="17.20" meanIntervalHaltingDuration="8.60" maxIntervalHaltingDuration="11.40" intervalHaltingDurationSum="17.20" startedHalts="2.00" meanVehicleNumber="1.73" maxVehicleNumber="2" />
   <interval begin="15.00" end="30.00" id="E.06" sampledSeconds="10.80" nVehEntered="1" nVehLeft="0" nVehSeen="1" meanSpeed="3.35" meanTimeLoss="8.72" meanOccupancy="6.16" maxOccupancy="8.55" meanMaxJamLengthInVehicles="0.31" meanMaxJamLengthInMeters="4.29" maxJamLengthInVehicles="1" maxJamLengthInMeters="14.00" jamLengthInVehiclesSum="23" jamLengthInMetersSum="322.00" meanHaltingDuration="5.60" maxHaltingDuration="5.60" haltingDurationSum="5.60" meanIntervalHaltingDuration="5.60" maxIntervalHaltingDuration="5.60" intervalHaltingDurationSum="5.60" startedHalts="1.00" meanVehicleNumber="0.72" maxVehicleNumber="1" />
   <interval begin="15.00" end="30.00" id="S.01" sampledSeconds="43.55" nVehEntered="3" nVehLeft="1" nVehSeen="4" meanSpeed="9.25" meanTimeLoss="1.63" meanOccupancy="11.00" maxOccupancy="15.33" meanMaxJamLengthInVehicles="0.01" meanMaxJamLengthInMeters="0.07" maxJamLengthInVehicles="1" maxJamLengthInMeters="5.00" jamLengthInVehiclesSum="1" jamLengthInMetersSum="5.00" meanHaltingDuration="1.20" maxHaltingDuration="1.20" haltingDurationSum="1.20" meanIntervalHaltingDuration="1.20" maxIntervalHaltingDuration="1.20" intervalHaltingDurationSum="1.20" startedHalts="1.00" meanVehicleNumber="2.92" maxVehicleNumber="4" />
   <interval begin="15.00" end="30.00" id="S.02" sampledSeconds="6.74" nVehEntered="2" nVehLeft="1" nVehSeen="3" meanSpeed="7.59" meanTimeLoss="0.64" meanOccupancy="2.83" maxOccupancy="16.48" meanMaxJamLengthInVehicles="0.00" meanMaxJamLengthInMeters="0.00" maxJamLengthInVehicles="0" maxJamLengthInMeters="0.00" jamLengthInVehiclesSum="0" jamLengthInMetersSum="0.00" meanHaltingDuration="0.00" maxHaltingDuration="0.00" haltingDurationSum="0.00" meanIntervalHaltingDuration="0.00" maxIntervalHaltingDuration="0.00" intervalHaltingDurationSum="0.00" startedHalts="0.00" meanVehicleNumber="0.45" maxVehicleNumber="2" />
   <interval begin="15.00" end="30.00" id="S.03" sampledSeconds="47.79" nVehEntered="1" nVehLeft="0" nVehSeen="4" meanSpeed="4.75" meanTimeLoss="6.01" meanOccupancy="19.88" maxOccupancy="31.04" meanMaxJamLengthInVehicles="0.83" meanMaxJamLengthInMeters="6.06" maxJamLengthInVehicles="3" maxJamLengthInMeters="27.52" jamLengthInVehiclesSum="62" jamLengthInMetersSum="454.13" meanHaltingDuration="5.13" maxHaltingDuration="7.00" haltingDurationSum="15.40" meanIntervalHaltingDuration="5.13" maxIntervalHaltingDuration="7.00" intervalHaltingDurationSum="15.40" startedHalts="3.00" meanVehicleNumber="3.19" maxVehicleNumber="4" />
   <interval begin="15.00" end="30.00" id="N.01" sampledSeconds="11.33" nVehEntered="3" nVehLeft="0" nVehSeen="3" meanSpeed="11.78" meanTimeLoss="0.19" meanOccupancy="2.97" maxOccupancy="12.61" meanMaxJamLengthInVehicles="0.00" meanMaxJamLengthInMeters="0.00" maxJamLengthInVehicles="0" maxJamLengthInMeters="0.00" jamLengthInVehiclesSum="0" jamLengthInMetersSum="0.00" meanHaltingDuration="0.00" maxHaltingDuration="0.00" haltingDurationSum="0.00" meanIntervalHaltingDuration="0.00" maxIntervalHaltingDuration="0.00" intervalHaltingDurationSum="0.00" startedHalts="0.00" meanVehicleNumber="0.77" maxVehicleNumber="3" />
   <interval begin="15.00" end="30.00" id="N.02" sampledSeconds="25.33" nVehEntered="3" nVehLeft="2" nVehSeen="3" meanSpeed="8.17" meanTimeLoss="2.16" meanOccupancy="9.86" maxOccupancy="19.48" meanMaxJamLengthInVehicles="0.00" meanMaxJamLengthInMeters="0.00" maxJamLengthInVehicles="0" maxJamLengthInMeters="0.00" jamLengthInVehiclesSum="0" jamLengthInMetersSum="0.00" meanHaltingDuration="0.00" maxHaltingDuration="0.00" haltingDurationSum="0.00" meanIntervalHaltingDuration="0.00" maxIntervalHaltingDuration="0.00" intervalHaltingDurationSum="0.00" startedHalts="0.00" meanVehicleNumber="1.73" maxVehicleNumber="3" />
   <interval begin="15.00" end="30.00" id="N.03" sampledSeconds="32.82" nVehEntered="3" nVehLeft="0" nVehSeen="3" meanSpeed="8.07" meanTimeLoss="2.61" meanOccupancy="12.54" maxOccupancy="19.48" meanMaxJamLengthInVehicles="0.00" meanMaxJamLengthInMeters="0.00" maxJamLengthInVehicles="0" maxJamLengthInMeters="0.00" jamLengthInVehiclesSum="0" jamLengthInMetersSum="0.00" meanHaltingDuration="0.00" maxHaltingDuration="0.00" haltingDurationSum="0.00" meanIntervalHaltingDuration="0.00" maxIntervalHaltingDuration="0.00" intervalHaltingDurationSum="0.00" startedHalts="0.00" meanVehicleNumber="2.21" maxVehicleNumber="3" />
   <interval begin="30.00" end="45.00" id="W.01" sampledSeconds="13.10" nVehEntered="1" nVehLeft="2" nVehSeen="3" meanSpeed="12.79" meanTimeLoss="0.65" meanOccupancy="4.23" maxOccupancy="13.63" meanMaxJamLengthInVehicles="0.00" meanMaxJamLengthInMeters="0.00" maxJamLengthInVehicles="0" maxJamLengthInMeters="0.00" jamLengthInVehiclesSum="0" jamLengthInMetersSum="0.00" meanHaltingDuration="0.00" maxHaltingDuration="0.00" haltingDurationSum="0.00" meanIntervalHaltingDuration="0.00" maxIntervalHaltingDuration="0.00" intervalHaltingDurationSum="0.00" startedHalts="0.00" meanVehicleNumber="0.89" maxVehicleNumber="2" />
   <interval begin="30.00" end="45.00" id="W.02" sampledSeconds="0.00" nVehEntered="0" nVehLeft="0" nVehSeen="0" meanSpeed="-1.00" meanTimeLoss="-1.00" meanOccupancy="0.00" maxOccupancy="0.00" meanMaxJamLengthInVehicles="0.00" meanMaxJamLengthInMeters="0.00" maxJamLengthInVehicles="0" maxJamLengthInMeters="0.00" jamLengthInVehiclesSum="0" jamLengthInMetersSum="0.00" meanHaltingDuration="0.00" maxHaltingDuration="0.00" haltingDurationSum="0.00" meanIntervalHaltingDuration="0.00" maxIntervalHaltingDuration="0.00" intervalHaltingDurationSum="0.00" startedHalts="0.00" meanVehicleNumber="0.00" maxVehicleNumber="0" />
   <interval begin="30.00" end="45.00" id="W.03" sampledSeconds="0.00" nVehEntered="0" nVehLeft="0" nVehSeen="0" meanSpeed="-1.00" meanTimeLoss="-1.00" meanOccupancy="0.00" maxOccupancy="0.00" meanMaxJamLengthInVehicles="0.00" meanMaxJamLengthInMeters="0.00" maxJamLengthInVehicles="0" maxJamLengthInMeters="0.00" jamLengthInVehiclesSum="0" jamLengthInMetersSum="0.00" meanHaltingDuration="0.00" maxHaltingDuration="0.00" haltingDurationSum="0.00" meanIntervalHaltingDuration="0.00" maxIntervalHaltingDuration="0.00" intervalHaltingDurationSum="0.00" startedHalts="0.00" meanVehicleNumber="0.00" maxVehicleNumber="0" />
   <interval begin="30.00" end="45.00" id="W.04" sampledSeconds="33.56" nVehEntered="2" nVehLeft="1" nVehSeen="3" meanSpeed="7.41" meanTimeLoss="4.94" meanOccupancy="13.19" maxOccupancy="20.52" meanMaxJamLengthInVehicles="0.69" meanMaxJamLengthInMeters="3.47" maxJamLengthInVehicles="1" maxJamLengthInMeters="5.00" jamLengthInVehiclesSum="52" jamLengthInMetersSum="260.00" meanHaltingDuration="16.60" maxHaltingDuration="16.60" haltingDurationSum="16.60" meanIntervalHaltingDuration="10.40" maxIntervalHaltingDuration="10.40" intervalHaltingDurationSum="10.40" startedHalts="0.00" meanVehicleNumber="2.25" maxVehicleNumber="3" />
   <interval begin="30.00" end="45.00" id="W.05" sampledSeconds="15.31" nVehEntered="2" nVehLeft="3" nVehSeen="3" meanSpeed="3.04" meanTimeLoss="3.98" meanOccupancy="3.49" maxOccupancy="9.66" meanMaxJamLengthInVehicles="0.69" meanMaxJamLengthInMeters="3.47" maxJamLengthInVehicles="1" maxJamLengthInMeters="5.00" jamLengthInVehiclesSum="52" jamLengthInMetersSum="260.00" meanHaltingDuration="13.40" maxHaltingDuration="13.40" haltingDurationSum="13.40" meanIntervalHaltingDuration="10.40" maxIntervalHaltingDuration="10.40" intervalHaltingDurationSum="10.40" startedHalts="0.00" meanVehicleNumber="1.05" maxVehicleNumber="2" />
   <interval begin="30.00" end="45.00" id="E.01" sampledSeconds="29.85" nVehEntered="1" nVehLeft="3" nVehSeen="4" meanSpeed="9.28" meanTimeLoss="2.80" meanOccupancy="10.29" maxOccupancy="14.66" meanMaxJamLengthInVehicles="0.00" meanMaxJamLengthInMeters="0.00" maxJamLengthInVehicles="0" maxJamLengthInMeters="0.00" jamLengthInVehiclesSum="0" jamLengthInMetersSum="0.00" meanHaltingDuration="0.00" maxHaltingDuration="0.00" haltingDurationSum="0.00" meanIntervalHaltingDuration="0.00" maxIntervalHaltingDuration="0.00" intervalHaltingDurationSum="0.00" startedHalts="0.00" meanVehicleNumber="2.00" maxVehicleNumber="3" />
   <interval begin="30.00" end="45.00" id="E.02" sampledSeconds="13.90" nVehEntered="4" nVehLeft="4" nVehSeen="5" meanSpeed="8.97" meanTimeLoss="1.14" meanOccupancy="4.11" maxOccupancy="11.61" meanMaxJamLengthInVehicles="0.00" meanMaxJamLengthInMeters="0.00" maxJamLengthInVehicles="0" maxJamLengthInMeters="0.00" jamLengthInVehiclesSum="0" jamLengthInMetersSum="0.00" meanHaltingDuration="0.00" maxHaltingDuration="0.00" haltingDurationSum="0.00" meanIntervalHaltingDuration="0.00" maxIntervalHaltingDuration="0.00" intervalHaltingDurationSum="0.00" startedHalts="0.00" meanVehicleNumber="0.96" maxVehicleNumber="2" />
   <interval begin="30.00" end="45.00" id="E.03" sampledSeconds="6.71" nVehEntered="3" nVehLeft="2" nVehSeen="3" meanSpeed="9.32" meanTimeLoss="0.81" meanOccupancy="2.61" maxOccupancy="10.08" meanMaxJamLengthInVehicles="0.00" meanMaxJamLengthInMeters="0.00" maxJamLengthInVehicles="0" maxJamLengthInMeters="0.00" jamLengthInVehiclesSum="0" jamLengthInMetersSum="0.00" meanHaltingDuration="0.00" maxHaltingDuration="0.00" haltingDurationSum="0.00" meanIntervalHaltingDuration="0.00" maxIntervalHaltingDuration="0.00" intervalHaltingDurationSum="0.00" startedHalts="0.00" meanVehicleNumber="0.47" maxVehicleNumber="1" />
   <interval begin="30.00" end="45.00" id="E.04" sampledSeconds="6.71" nVehEntered="3" nVehLeft="2" nVehSeen="3" meanSpeed="9.32" meanTimeLoss="0.81" meanOccupancy="2.61" maxOccupancy="10.08" meanMaxJamLengthInVehicles="0.00" meanMaxJamLengthInMeters="0.00" maxJamLengthInVehicles="0" maxJamLengthInMeters="0.00" jamLengthInVehiclesSum="0" jamLengthInMetersSum="0.00" meanHaltingDuration="0.00" maxHaltingDuration="0.00" haltingDurationSum="0.00" meanIntervalHaltingDuration="0.00" maxIntervalHaltingDuration="0.00" intervalHaltingDurationSum="0.00" startedHalts="0.00" meanVehicleNumber="0.47" maxVehicleNumber="1" />
   <interval begin="30.00" end="45.00" id="E.05" sampledSeconds="49.58" nVehEntered="3" nVehLeft="2" nVehSeen="5" meanSpeed="5.30" meanTimeLoss="6.26" meanOccupancy="13.03" maxOccupancy="23.34" meanMaxJamLengthInVehicles="1.45" meanMaxJamLengthInMeters="8.36" maxJamLengthInVehicles="2" maxJamLengthInMeters="11.86" jamLengthInVehiclesSum="109" jamLengthInMetersSum="626.65" meanHaltingDuration="19.50" maxHaltingDuration="21.80" haltingDurationSum="39.00" meanIntervalHaltingDuration="10.90" maxIntervalHaltingDuration="11.40" intervalHaltingDurationSum="21.80" startedHalts="0.00" meanVehicleNumber="3.32" maxVehicleNumber="5" />
   <interval begin="30.00" end="45.00" id="E.06" sampledSeconds="20.51" nVehEntered="3" nVehLeft="3" nVehSeen="4" meanSpeed="3.78" meanTimeLoss="3.77" meanOccupancy="9.75" maxOccupancy="17.88" meanMaxJamLengthInVehicles="0.71" meanMaxJamLengthInMeters="9.89" maxJamLengthInVehicles="1" maxJamLengthInMeters="14.00" jamLengthInVehiclesSum="53" jamLengthInMetersSum="742.00" meanHaltingDuration="16.20" maxHaltingDuration="16.20" haltingDurationSum="16.20" meanIntervalHaltingDuration="10.60" maxIntervalHaltingDuration="10.60" intervalHaltingDurationSum="10.60" startedHalts="0.00" meanVehicleNumber="1.39" maxVehicleNumber="2" />
   <interval begin="30.00" end="45.00" id="S.01" sampledSeconds="74.09" nVehEntered="4" nVehLeft="2" nVehSeen="7" meanSpeed="4.53" meanTimeLoss="6.29" meanOccupancy="23.07" maxOccupancy="34.57" meanMaxJamLengthInVehicles="2.11" meanMaxJamLengthInMeters="12.32" maxJamLengthInVehicles="3" maxJamLengthInMeters="18.53" jamLengthInVehiclesSum="158" jamLengthInMetersSum="923.72" meanHaltingDuration="11.60" maxHaltingDuration="16.20" haltingDurationSum="34.80" meanIntervalHaltingDuration="11.20" maxIntervalHaltingDuration="15.00" intervalHaltingDurationSum="33.60" startedHalts="3.00" meanVehicleNumber="4.96" maxVehicleNumber="6" />