<?xml version="1.0" encoding="UTF-8"?>

<!-- generated on Mon Aug 10 18:48:36 2020 by Eclipse SUMO Version 1.5.0
<configuration xmlns:xsi="http://www.w3.org/2001/XMLSchema-instance" xsi:noNamespaceSchemaLocation="http://sumo.dlr.de/xsd/sumoConfiguration.xsd">

    <input>
        <net-file value="./project/ITLS.net.xml"/>
        <route-files value="./project/ITLS.rou.xml"/>
        <additional-files value="./project/ITLS.add.xml"/>
    </input>

    <output>
        <tripinfo-output value="./project/./output/output-tripinfos.xml"/>
    </output>

    <time>
        <begin value="0"/>
        <step-length value="0.2"/>
    </time>

    <processing>
        <lateral-resolution value="0.8"/>
    </processing>

    <report>
        <verbose value="true"/>
        <no-warnings value="true"/>
        <duration-log.disable value="false"/>
    </report>

    <traci_server>
        <remote-port value="61782"/>
    </traci_server>

    <random_number>
        <random value="true"/>
    </random_number>

    <gui_only>
        <gui-settings-file value="./project/view.settings.xml"/>
        <quit-on-end value="true"/>
        <start value="true"/>
        <tracker-interval value="0.2"/>
    </gui_only>

</configuration>
-->

<detector xmlns:xsi="http://www.w3.org/2001/XMLSchema-instance" xsi:noNamespaceSchemaLocation="http://sumo.dlr.de/xsd/det_e2_file.xsd">
   <interval begin="0.00" end="15.00" id="W.01" sampledSeconds="0.00" nVehEntered="0" nVehLeft="0" nVehSeen="0" meanSpeed="-1.00" meanTimeLoss="-1.00" meanOccupancy="0.00" maxOccupancy="0.00" meanMaxJamLengthInVehicles="0.00" meanMaxJamLengthInMeters="0.00" maxJamLengthInVehicles="0" maxJamLengthInMeters="0.00" jamLengthInVehiclesSum="0" jamLengthInMetersSum="0.00" meanHaltingDuration="0.00" maxHaltingDuration="0.00" haltingDurationSum="0.00" meanIntervalHaltingDuration="0.00" maxIntervalHaltingDuration="0.00" intervalHaltingDurationSum="0.00" startedHalts="0.00" meanVehicleNumber="0.00" maxVehicleNumber="0" />
   <interval begin="0.00" end="15.00" id="W.02" sampledSeconds="0.00" nVehEntered="0" nVehLeft="0" nVehSeen="0" meanSpeed="-1.00" meanTimeLoss="-1.00" meanOccupancy="0.00" maxOccupancy="0.00" meanMaxJamLengthInVehicles="0.00" meanMaxJamLengthInMeters="0.00" maxJamLengthInVehicles="0" maxJamLengthInMeters="0.00" jamLengthInVehiclesSum="0" jamLengthInMetersSum="0.00" meanHaltingDuration="0.00" maxHaltingDuration="0.00" haltingDurationSum="0.00" meanIntervalHaltingDuration="0.00" maxIntervalHaltingDuration="0.00" intervalHaltingDurationSum="0.00" startedHalts="0.00" meanVehicleNumber="0.00" maxVehicleNumber="0" />
   <interval begin="0.00" end="15.00" id="W.03" sampledSeconds="0.00" nVehEntered="0" nVehLeft="0" nVehSeen="0" meanSpeed="-1.00" meanTimeLoss="-1.00" meanOccupancy="0.00" maxOccupancy="0.00" meanMaxJamLengthInVehicles="0.00" meanMaxJamLengthInMeters="0.00" maxJamLengthInVehicles="0" maxJamLengthInMeters="0.00" jamLengthInVehiclesSum="0" jamLengthInMetersSum="0.00" meanHaltingDuration="0.00" maxHaltingDuration="0.00" haltingDurationSum="0.00" meanIntervalHaltingDuration="0.00" maxIntervalHaltingDuration="0.00" intervalHaltingDurationSum="0.00" startedHalts="0.00" meanVehicleNumber="0.00" maxVehicleNumber="0" />
   <interval begin="0.00" end="15.00" id="W.04" sampledSeconds="5.70" nVehEntered="2" nVehLeft="0" nVehSeen="2" meanSpeed="15.38" meanTimeLoss="0.17" meanOccupancy="1.33" maxOccupancy="7.17" meanMaxJamLengthInVehicles="0.00" meanMaxJamLengthInMeters="0.00" maxJamLengthInVehicles="0" maxJamLengthInMeters="0.00" jamLengthInVehiclesSum="0" jamLengthInMetersSum="0.00" meanHaltingDuration="0.00" maxHaltingDuration="0.00" haltingDurationSum="0.00" meanIntervalHaltingDuration="0.00" maxIntervalHaltingDuration="0.00" intervalHaltingDurationSum="0.00" startedHalts="0.00" meanVehicleNumber="0.40" maxVehicleNumber="2" />
   <interval begin="0.00" end="15.00" id="W.05" sampledSeconds="1.74" nVehEntered="2" nVehLeft="2" nVehSeen="2" meanSpeed="15.49" meanTimeLoss="0.05" meanOccupancy="0.26" maxOccupancy="3.59" meanMaxJamLengthInVehicles="0.00" meanMaxJamLengthInMeters="0.00" maxJamLengthInVehicles="0" maxJamLengthInMeters="0.00" jamLengthInVehiclesSum="0" jamLengthInMetersSum="0.00" meanHaltingDuration="0.00" maxHaltingDuration="0.00" haltingDurationSum="0.00" meanIntervalHaltingDuration="0.00" maxIntervalHaltingDuration="0.00" intervalHaltingDurationSum="0.00" startedHalts="0.00" meanVehicleNumber="0.15" maxVehicleNumber="1" />
   <interval begin="0.00" end="15.00" id="E.01" sampledSeconds="1.18" nVehEntered="3" nVehLeft="2" nVehSeen="3" meanSpeed="6.79" meanTimeLoss="0.22" meanOccupancy="0.10" maxOccupancy="2.46" meanMaxJamLengthInVehicles="0.00" meanMaxJamLengthInMeters="0.00" maxJamLengthInVehicles="0" maxJamLengthInMeters="0.00" jamLengthInVehiclesSum="0" jamLengthInMetersSum="0.00" meanHaltingDuration="0.00" maxHaltingDuration="0.00" haltingDurationSum="0.00" meanIntervalHaltingDuration="0.00" maxIntervalHaltingDuration="0.00" intervalHaltingDurationSum="0.00" startedHalts="0.00" meanVehicleNumber="0.11" maxVehicleNumber="1" />
   <interval begin="0.00" end="15.00" id="E.02" sampledSeconds="12.49" nVehEntered="4" nVehLeft="3" nVehSeen="4" meanSpeed="10.15" meanTimeLoss="0.97" meanOccupancy="3.39" maxOccupancy="8.55" meanMaxJamLengthInVehicles="0.00" meanMaxJamLengthInMeters="0.00" maxJamLengthInVehicles="0" maxJamLengthInMeters="0.00" jamLengthInVehiclesSum="0" jamLengthInMetersSum="0.00" meanHaltingDuration="0.00" maxHaltingDuration="0.00" haltingDurationSum="0.00" meanIntervalHaltingDuration="0.00" maxIntervalHaltingDuration="0.00" intervalHaltingDurationSum="0.00" startedHalts="0.00" meanVehicleNumber="0.84" maxVehicleNumber="2" />
   <interval begin="0.00" end="15.00" id="E.03" sampledSeconds="8.23" nVehEntered="3" nVehLeft="3" nVehSeen="3" meanSpeed="12.79" meanTimeLoss="0.69" meanOccupancy="1.75" maxOccupancy="11.61" meanMaxJamLengthInVehicles="0.00" meanMaxJamLengthInMeters="0.00" maxJamLengthInVehicles="0" maxJamLengthInMeters="0.00" jamLengthInVehiclesSum="0" jamLengthInMetersSum="0.00" meanHaltingDuration="0.00" maxHaltingDuration="0.00" haltingDurationSum="0.00" meanIntervalHaltingDuration="0.00" maxIntervalHaltingDuration="0.00" intervalHaltingDurationSum="0.00" startedHalts="0.00" meanVehicleNumber="0.56" maxVehicleNumber="2" />
   <interval begin="0.00" end="15.00" id="E.04" sampledSeconds="4.43" nVehEntered="3" nVehLeft="2" nVehSeen="3" meanSpeed="9.67" meanTimeLoss="0.55" meanOccupancy="0.98" maxOccupancy="9.33" meanMaxJamLengthInVehicles="0.00" meanMaxJamLengthInMeters="0.00" maxJamLengthInVehicles="0" maxJamLengthInMeters="0.00" jamLengthInVehiclesSum="0" jamLengthInMetersSum="0.00" meanHaltingDuration="0.00" maxHaltingDuration="0.00" haltingDurationSum="0.00" meanIntervalHaltingDuration="0.00" maxIntervalHaltingDuration="0.00" intervalHaltingDurationSum="0.00" startedHalts="0.00" meanVehicleNumber="0.31" maxVehicleNumber="2" />
   <interval begin="0.00" end="15.00" id="E.05" sampledSeconds="8.40" nVehEntered="2" nVehLeft="0" nVehSeen="2" meanSpeed="11.04" meanTimeLoss="0.40" meanOccupancy="2.66" maxOccupancy="11.61" meanMaxJamLengthInVehicles="0.00" meanMaxJamLengthInMeters="0.00" maxJamLengthInVehicles="0" maxJamLengthInMeters="0.00" jamLengthInVehiclesSum="0" jamLengthInMetersSum="0.00" meanHaltingDuration="0.00" maxHaltingDuration="0.00" haltingDurationSum="0.00" meanIntervalHaltingDuration="0.00" maxIntervalHaltingDuration="0.00" intervalHaltingDurationSum="0.00" startedHalts="0.00" meanVehicleNumber="0.56" maxVehicleNumber="2" />
   <interval begin="0.00" end="15.00" id="E.06" sampledSeconds="2.23" nVehEntered="2" nVehLeft="2" nVehSeen="2" meanSpeed="11.25" meanTimeLoss="0.20" meanOccupancy="0.53" maxOccupancy="8.55" meanMaxJamLengthInVehicles="0.00" meanMaxJamLengthInMeters="0.00" maxJamLengthInVehicles="0" maxJamLengthInMeters="0.00" jamLengthInVehiclesSum="0" jamLengthInMetersSum="0.00" meanHaltingDuration="0.00" maxHaltingDuration="0.00" haltingDurationSum="0.00" meanIntervalHaltingDuration="0.00" maxIntervalHaltingDuration="0.00" intervalHaltingDurationSum="0.00" startedHalts="0.00" meanVehicleNumber="0.16" maxVehicleNumber="1" />
   <interval begin="0.00" end="15.00" id="S.01" sampledSeconds="0.47" nVehEntered="1" nVehLeft="0" nVehSeen="1" meanSpeed="10.39" meanTimeLoss="0.03" meanOccupancy="0.08" maxOccupancy="3.72" meanMaxJamLengthInVehicles="0.00" meanMaxJamLengthInMeters="0.00" maxJamLengthInVehicles="0" maxJamLengthInMeters="0.00" jamLengthInVehiclesSum="0" jamLengthInMetersSum="0.00" meanHaltingDuration="0.00" maxHaltingDuration="0.00" haltingDurationSum="0.00" meanIntervalHaltingDuration="0.00" maxIntervalHaltingDuration="0.00" intervalHaltingDurationSum="0.00" startedHalts="0.00" meanVehicleNumber="0.04" maxVehicleNumber="1" />
   <interval begin="0.00" end="15.00" id="S.02" sampledSeconds="10.76" nVehEntered="3" nVehLeft="2" nVehSeen="3" meanSpeed="10.84" meanTimeLoss="0.42" meanOccupancy="3.61" maxOccupancy="10.73" meanMaxJamLengthInVehicles="0.00" meanMaxJamLengthInMeters="0.00" maxJamLengthInVehicles="0" maxJamLengthInMeters="0.00" jamLengthInVehiclesSum="0" jamLengthInMetersSum="0.00" meanHaltingDuration="0.00" maxHaltingDuration="0.00" haltingDurationSum="0.00" meanIntervalHaltingDuration="0.00" maxIntervalHaltingDuration="0.00" intervalHaltingDurationSum="0.00" startedHalts="0.00" meanVehicleNumber="0.73" maxVehicleNumber="2" />
   <interval begin="0.00" end="15.00" id="S.03" sampledSeconds="20.26" nVehEntered="3" nVehLeft="0" nVehSeen="3" meanSpeed="10.75" meanTimeLoss="0.67" meanOccupancy="6.37" maxOccupancy="18.40" meanMaxJamLengthInVehicles="0.00" meanMaxJamLengthInMeters="0.00" maxJamLengthInVehicles="0" maxJamLengthInMeters="0.00" jamLengthInVehiclesSum="0" jamLengthInMetersSum="0.00" meanHaltingDuration="0.00" maxHaltingDuration="0.00" haltingDurationSum="0.00" meanIntervalHaltingDuration="0.00" maxIntervalHaltingDuration="0.00" intervalHaltingDurationSum="0.00" startedHalts="0.00" meanVehicleNumber="1.36" maxVehicleNumber="3" />
   <interval begin="0.00" end="15.00" id="N.01" sampledSeconds="0.00" nVehEntered="0" nVehLeft="0" nVehSeen="0" meanSpeed="-1.00" meanTimeLoss="-1.00" meanOccupancy="0.00" maxOccupancy="0.00" meanMaxJamLengthInVehicles="0.00" meanMaxJamLengthInMeters="0.00" maxJamLengthInVehicles="0" maxJamLengthInMeters="0.00" jamLengthInVehiclesSum="0" jamLengthInMetersSum="0.00" meanHaltingDuration="0.00" maxHaltingDuration="0.00" haltingDurationSum="0.00" meanIntervalHaltingDuration="0.00" maxIntervalHaltingDuration="0.00" intervalHaltingDurationSum="0.00" startedHalts="0.00" meanVehicleNumber="0.00" maxVehicleNumber="0" />
   <interval begin="0.00" end="15.00" id="N.02" sampledSeconds="2.44" nVehEntered="1" nVehLeft="0" nVehSeen="1" meanSpeed="12.70" meanTimeLoss="0.07" meanOccupancy="0.63" maxOccupancy="4.06" meanMaxJamLengthInVehicles="0.00" meanMaxJamLengthInMeters="0.00" maxJamLengthInVehicles="0" maxJamLengthInMeters="0.00" jamLengthInVehiclesSum="0" jamLengthInMetersSum="0.00" meanHaltingDuration="0.00" maxHaltingDuration="0.00" haltingDurationSum="0.00" meanIntervalHaltingDuration="0.00" maxIntervalHaltingDuration="0.00" intervalHaltingDurationSum="0.00" startedHalts="0.00" meanVehicleNumber="0.17" maxVehicleNumber="1" />
   <interval begin="0.00" end="15.00" id="N.03" sampledSeconds="2.44" nVehEntered="1" nVehLeft="0" nVehSeen="1" meanSpeed="12.70" meanTimeLoss="0.07" meanOccupancy="0.63" maxOccupancy="4.06" meanMaxJamLengthInVehicles="0.00" meanMaxJamLengthInMeters="0.00" maxJamLengthInVehicles="0" maxJamLengthInMeters="0.00" jamLengthInVehiclesSum="0" jamLengthInMetersSum="0.00" meanHaltingDuration="0.00" maxHaltingDuration="0.00" haltingDurationSum="0.00" meanIntervalHaltingDuration="0.00" maxIntervalHaltingDuration="0.00" intervalHaltingDurationSum="0.00" startedHalts="0.00" meanVehicleNumber="0.17" maxVehicleNumber="1" />
   <interval begin="15.00" end="30.00" id="W.01" sampledSeconds="21.46" nVehEntered="3" nVehLeft="1" nVehSeen="3" meanSpeed="14.76" meanTimeLoss="0.12" meanOccupancy="8.10" maxOccupancy="13.63" meanMaxJamLengthInVehicles="0.00" meanMaxJamLengthInMeters="0.00" maxJamLengthInVehicles="0" maxJamLengthInMeters="0.00" jamLengthInVehiclesSum="0" jamLengthInMetersSum="0.00" meanHaltingDuration="0.00" maxHaltingDuration="0.00" haltingDurationSum="0.00" meanIntervalHaltingDuration="0.00" maxIntervalHaltingDuration="0.00" intervalHaltingDurationSum="0.00" startedHalts="0.00" meanVehicleNumber="1.47" maxVehicleNumber="2" />
   <interval begin="15.00" end="30.00" id="W.02" sampledSeconds="7.56" nVehEntered="1" nVehLeft="1" nVehSeen="1" meanSpeed="19.11" meanTimeLoss="0.23" meanOccupancy="1.74" maxOccupancy="3.59" meanMaxJamLengthInVehicles="0.00" meanMaxJamLengthInMeters="0.00" maxJamLengthInVehicles="0" maxJamLengthInMeters="0.00" jamLengthInVehiclesSum="0" jamLengthInMetersSum="0.00" meanHaltingDuration="0.00" maxHaltingDuration="0.00" haltingDurationSum="0.00" meanIntervalHaltingDuration="0.00" maxIntervalHaltingDuration="0.00" intervalHaltingDurationSum="0.00" startedHalts="0.00" meanVehicleNumber="0.52" maxVehicleNumber="1" />
   <interval begin="15.00" end="30.00" id="W.03" sampledSeconds="0.00" nVehEntered="0" nVehLeft="0" nVehSeen="0" meanSpeed="-1.00" meanTimeLoss="-1.00" meanOccupancy="0.00" maxOccupancy="0.00" meanMaxJamLengthInVehicles="0.00" meanMaxJamLengthInMeters="0.00" maxJamLengthInVehicles="0" maxJamLengthInMeters="0.00" jamLengthInVehiclesSum="0" jamLengthInMetersSum="0.00" meanHaltingDuration="0.00" maxHaltingDuration="0.00" haltingDurationSum="0.00" meanIntervalHaltingDuration="0.00" maxIntervalHaltingDuration="0.00" intervalHaltingDurationSum="0.00" startedHalts="0.00" meanVehicleNumber="0.00" maxVehicleNumber="0" />
   <interval begin="15.00" end="30.00" id="W.04" sampledSeconds="22.20" nVehEntered="0" nVehLeft="1" nVehSeen="2" meanSpeed="7.69" meanTimeLoss="5.91" meanOccupancy="5.31" maxOccupancy="7.17" meanMaxJamLengthInVehicles="0.43" meanMaxJamLengthInMeters="2.13" maxJamLengthInVehicles="1" maxJamLengthInMeters="5.00" jamLengthInVehiclesSum="32" jamLengthInMetersSum="160.00" meanHaltingDuration="7.40" maxHaltingDuration="7.40" haltingDurationSum="7.40" meanIntervalHaltingDuration="7.40" maxIntervalHaltingDuration="7.40" intervalHaltingDurationSum="7.40" startedHalts="1.00" meanVehicleNumber="1.48" maxVehicleNumber="2" />
   <interval begin="15.00" end="30.00" id="W.05" sampledSeconds="7.80" nVehEntered="1" nVehLeft="0" nVehSeen="1" meanSpeed="2.35" meanTimeLoss="6.70" meanOccupancy="1.87" maxOccupancy="3.59" meanMaxJamLengthInVehicles="0.21" meanMaxJamLengthInMeters="1.07" maxJamLengthInVehicles="1" maxJamLengthInMeters="5.00" jamLengthInVehiclesSum="16" jamLengthInMetersSum="80.00" meanHaltingDuration="4.20" maxHaltingDuration="4.20" haltingDurationSum="4.20" meanIntervalHaltingDuration="4.20" maxIntervalHaltingDuration="4.20" intervalHaltingDurationSum="4.20" startedHalts="1.00" meanVehicleNumber="0.52" maxVehicleNumber="1" />
   <interval begin="15.00" end="30.00" id="E.01" sampledSeconds="20.63" nVehEntered="4" nVehLeft="2" nVehSeen="5" meanSpeed="11.65" meanTimeLoss="1.09" meanOccupancy="4.84" maxOccupancy="14.66" meanMaxJamLengthInVehicles="0.00" meanMaxJamLengthInMeters="0.00" maxJamLengthInVehicles="0" maxJamLengthInMeters="0.00" jamLengthInVehiclesSum="0" jamLengthInMetersSum="0.00" meanHaltingDuration="0.00" maxHaltingDuration="0.00" haltingDurationSum="0.00" meanIntervalHaltingDuration="0.00" maxIntervalHaltingDuration="0.00" intervalHaltingDurationSum="0.00" startedHalts="0.00" meanVehicleNumber="1.41" maxVehicleNumber="3" />
   <interval begin="15.00" end="30.00" id="E.02" sampledSeconds="32.55" nVehEntered="2" nVehLeft="2" nVehSeen="3" meanSpeed="13.50" meanTimeLoss="0.95" meanOccupancy="10.52" maxOccupancy="14.66" meanMaxJamLengthInVehicles="0.00" meanMaxJamLengthInMeters="0.00" maxJamLengthInVehicles="0" maxJamLengthInMeters="0.00" jamLengthInVehiclesSum="0" jamLengthInMetersSum="0.00" meanHaltingDuration="0.00" maxHaltingDuration="0.00" haltingDurationSum="0.00" meanIntervalHaltingDuration="0.00" maxIntervalHaltingDuration="0.00" intervalHaltingDurationSum="0.00" startedHalts="0.00" meanVehicleNumber="2.19" maxVehicleNumber="3" />
   <interval begin="15.00" end="30.00" id="E.03" sampledSeconds="0.00" nVehEntered="0" nVehLeft="0" nVehSeen="0" meanSpeed="-1.00" meanTimeLoss="-1.00" meanOccupancy="0.00" maxOccupancy="0.00" meanMaxJamLengthInVehicles="0.00" meanMaxJamLengthInMeters="0.00" maxJamLengthInVehicles="0" maxJamLengthInMeters="0.00" jamLengthInVehiclesSum="0" jamLengthInMetersSum="0.00" meanHaltingDuration="0.00" maxHaltingDuration="0.00" haltingDurationSum="0.00" meanIntervalHaltingDuration="0.00" maxIntervalHaltingDuration="0.00" intervalHaltingDurationSum="0.00" startedHalts="0.00" meanVehicleNumber="0.00" maxVehicleNumber="0" />
   <interval begin="15.00" end="30.00" id="E.04" sampledSeconds="1.40" nVehEntered="0" nVehLeft="1" nVehSeen="1" meanSpeed="10.41" meanTimeLoss="0.61" meanOccupancy="0.29" maxOccupancy="3.06" meanMaxJamLengthInVehicles="0.00" meanMaxJamLengthInMeters="0.00" maxJamLengthInVehicles="0" maxJamLengthInMeters="0.00" jamLengthInVehiclesSum="0" jamLengthInMetersSum="0.00" meanHaltingDuration="0.00" maxHaltingDuration="0.00" haltingDurationSum="0.00" meanIntervalHaltingDuration="0.00" maxIntervalHaltingDuration="0.00" intervalHaltingDurationSum="0.00" startedHalts="0.00" meanVehicleNumber="0.09" maxVehicleNumber="1" />
   <interval begin="15.00" end="30.00" id="E.05" sampledSeconds="31.20" nVehEntered="1" nVehLeft="1" nVehSeen="3" meanSpeed="4.15" meanTimeLoss="7.44" meanOccupancy="11.85" maxOccupancy="14.66" meanMaxJamLengthInVehicles="0.99" meanMaxJamLengthInMeters="7.91" maxJamLengthInVehicles="2" maxJamLengthInMeters="20.91" jamLengthInVehiclesSum="74" jamLengthInMetersSum="593.32" meanHaltingDuration="8.40" maxHaltingDuration="11.60" haltingDurationSum="16.80" meanIntervalHaltingDuration="8.40" maxIntervalHaltingDuration="11.60" intervalHaltingDurationSum="16.80" startedHalts="2.00" meanVehicleNumber="2.08" maxVehicleNumber="3" />
   <interval begin="15.00" end="30.00" id="E.06" sampledSeconds="12.40" nVehEntered="1" nVehLeft="0" nVehSeen="1" meanSpeed="3.35" meanTimeLoss="8.63" meanOccupancy="2.53" maxOccupancy="3.06" meanMaxJamLengthInVehicles="0.36" meanMaxJamLengthInMeters="1.80" maxJamLengthInVehicles="1" maxJamLengthInMeters="5.00" jamLengthInVehiclesSum="27" jamLengthInMetersSum="135.00" meanHaltingDuration="6.40" maxHaltingDuration="6.40" haltingDurationSum="6.40" meanIntervalHaltingDuration="6.40" maxIntervalHaltingDuration="6.40" intervalHaltingDurationSum="6.40" startedHalts="1.00" meanVehicleNumber="0.83" maxVehicleNumber="1" />
   <interval begin="15.00" end="30.00" id="S.01" sampledSeconds="43.48" nVehEntered="4" nVehLeft="1" nVehSeen="5" meanSpeed="9.41" meanTimeLoss="1.42" meanOccupancy="10.96" maxOccupancy="15.33" meanMaxJamLengthInVehicles="0.01" meanMaxJamLengthInMeters="0.07" maxJamLengthInVehicles="1" maxJamLengthInMeters="5.00" jamLengthInVehiclesSum="1" jamLengthInMetersSum="5.00" meanHaltingDuration="1.20" maxHaltingDuration="1.20" haltingDurationSum="1.20" meanIntervalHaltingDuration="1.20" maxIntervalHaltingDuration="1.20" intervalHaltingDurationSum="1.20" startedHalts="1.00" meanVehicleNumber="2.93" maxVehicleNumber="4" />
   <interval begin="15.00" end="30.00" id="S.02" sampledSeconds="6.32" nVehEntered="2" nVehLeft="1" nVehSeen="3" meanSpeed="7.78" meanTimeLoss="0.78" meanOccupancy="2.43" maxOccupancy="16.48" meanMaxJamLengthInVehicles="0.00" meanMaxJamLengthInMeters="0.00" maxJamLengthInVehicles="0" maxJamLengthInMeters="0.00" jamLengthInVehiclesSum="0" jamLengthInMetersSum="0.00" meanHaltingDuration="0.00" maxHaltingDuration="0.00" haltingDurationSum="0.00" meanIntervalHaltingDuration="0.00" maxIntervalHaltingDuration="0.00" intervalHaltingDurationSum="0.00" startedHalts="0.00" meanVehicleNumber="0.43" maxVehicleNumber="2" />
   <interval begin="15.00" end="30.00" id="S.03" sampledSeconds="47.98" nVehEntered="1" nVehLeft="0" nVehSeen="4" meanSpeed="3.64" meanTimeLoss="8.52" meanOccupancy="20.05" maxOccupancy="31.04" meanMaxJamLengthInVehicles="1.51" meanMaxJamLengthInMeters="12.19" maxJamLengthInVehicles="3" maxJamLengthInMeters="27.54" jamLengthInVehiclesSum="113" jamLengthInMetersSum="914.01" meanHaltingDuration="8.53" maxHaltingDuration="10.60" haltingDurationSum="25.60" meanIntervalHaltingDuration="8.53" maxIntervalHaltingDuration="10.60" intervalHaltingDurationSum="25.60" startedHalts="3.00" meanVehicleNumber="3.20" maxVehicleNumber="4" />
   <interval begin="15.00" end="30.00" id="N.01" sampledSeconds="4.57" nVehEntered="3" nVehLeft="0" nVehSeen="3" meanSpeed="9.97" meanTimeLoss="0.06" meanOccupancy="1.18" maxOccupancy="13.79" meanMaxJamLengthInVehicles="0.00" meanMaxJamLengthInMeters="0.00" maxJamLengthInVehicles="0" maxJamLengthInMeters="0.00" jamLengthInVehiclesSum="0" jamLengthInMetersSum="0.00" meanHaltingDuration="0.00" maxHaltingDuration="0.00" haltingDurationSum="0.00" meanIntervalHaltingDuration="0.00" maxIntervalHaltingDuration="0.00" intervalHaltingDurationSum="0.00" startedHalts="0.00" meanVehicleNumber="0.32" maxVehicleNumber="3" />
   <interval begin="15.00" end="30.00" id="N.02" sampledSeconds="23.08" nVehEntered="3" nVehLeft="4" nVehSeen="4" meanSpeed="10.62" meanTimeLoss="0.52" meanOccupancy="8.56" maxOccupancy="15.42" meanMaxJamLengthInVehicles="0.00" meanMaxJamLengthInMeters="0.00" maxJamLengthInVehicles="0" maxJamLengthInMeters="0.00" jamLengthInVehiclesSum="0" jamLengthInMetersSum="0.00" meanHaltingDuration="0.00" maxHaltingDuration="0.00" haltingDurationSum="0.00" meanIntervalHaltingDuration="0.00" maxIntervalHaltingDuration="0.00" intervalHaltingDurationSum="0.00" startedHalts="0.00" meanVehicleNumber="1.56" maxVehicleNumber="2" />
   <interval begin="15.00" end="30.00" id="N.03" sampledSeconds="44.27" nVehEntered="3" nVehLeft="1" nVehSeen="4" meanSpeed="8.29" meanTimeLoss="3.22" meanOccupancy="16.09" maxOccupancy="23.54" meanMaxJamLengthInVehicles="0.29" meanMaxJamLengthInMeters="1.47" maxJamLengthInVehicles="1" maxJamLengthInMeters="5.00" jamLengthInVehiclesSum="22" jamLengthInMetersSum="110.00" meanHaltingDuration="2.80" maxHaltingDuration="5.40" haltingDurationSum="5.60" meanIntervalHaltingDuration="2.80" maxIntervalHaltingDuration="5.40" intervalHaltingDurationSum="5.60" startedHalts="2.00" meanVehicleNumber="2.96" maxVehicleNumber="4" />
   <interval begin="30.00" end="45.00" id="W.01" sampledSeconds="16.85" nVehEntered="1" nVehLeft="2" nVehSeen="3" meanSpeed="10.98" meanTimeLoss="1.00" meanOccupancy="4.89" maxOccupancy="13.63" meanMaxJamLengthInVehicles="0.00" meanMaxJamLengthInMeters="0.00" maxJamLengthInVehicles="0" maxJamLengthInMeters="0.00" jamLengthInVehiclesSum="0" jamLengthInMetersSum="0.00" meanHaltingDuration="0.00" maxHaltingDuration="0.00" haltingDurationSum="0.00" meanIntervalHaltingDuration="0.00" maxIntervalHaltingDuration="0.00" intervalHaltingDurationSum="0.00" startedHalts="0.00" meanVehicleNumber="1.15" maxVehicleNumber="2" />
   <interval begin="30.00" end="45.00" id="W.02" sampledSeconds="0.00" nVehEntered="0" nVehLeft="0" nVehSeen="0" meanSpeed="-1.00" meanTimeLoss="-1.00" meanOccupancy="0.00" maxOccupancy="0.00" meanMaxJamLengthInVehicles="0.00" meanMaxJamLengthInMeters="0.00" maxJamLengthInVehicles="0" maxJamLengthInMeters="0.00" jamLengthInVehiclesSum="0" jamLengthInMetersSum="0.00" meanHaltingDuration="0.00" maxHaltingDuration="0.00" haltingDurationSum="0.00" meanIntervalHaltingDuration="0.00" maxIntervalHaltingDuration="0.00" intervalHaltingDurationSum="0.00" startedHalts="0.00" meanVehicleNumber="0.00" maxVehicleNumber="0" />
   <interval begin="30.00" end="45.00" id="W.03" sampledSeconds="0.00" nVehEntered="0" nVehLeft="0" nVehSeen="0" meanSpeed="-1.00" meanTimeLoss="-1.00" meanOccupancy="0.00" maxOccupancy="0.00" meanMaxJamLengthInVehicles="0.00" meanMaxJamLengthInMeters="0.00" maxJamLengthInVehicles="0" maxJamLengthInMeters="0.00" jamLengthInVehiclesSum="0" jamLengthInMetersSum="0.00" meanHaltingDuration="0.00" maxHaltingDuration="0.00" haltingDurationSum="0.00" meanIntervalHaltingDuration="0.00" maxIntervalHaltingDuration="0.00" intervalHaltingDurationSum="0.00" startedHalts="0.00" meanVehicleNumber="0.00" maxVehicleNumber="0" />
   <interval begin="30.00" end="45.00" id="W.04" sampledSeconds="35.95" nVehEntered="2" nVehLeft="2" nVehSeen="3" meanSpeed="6.71" meanTimeLoss="7.08" meanOccupancy="13.98" maxOccupancy="20.52" meanMaxJamLengthInVehicles="1.00" meanMaxJamLengthInMeters="5.00" maxJamLengthInVehicles="1" maxJamLengthInMeters="5.00" jamLengthInVehiclesSum="75" jamLengthInMetersSum="375.00" meanHaltingDuration="22.40" maxHaltingDuration="22.40" haltingDurationSum="22.40" meanIntervalHaltingDuration="15.00" maxIntervalHaltingDuration="15.00" intervalHaltingDurationSum="15.00" startedHalts="1.00" meanVehicleNumber="2.41" maxVehicleNumber="3" />
   <interval begin="30.00" end="45.00" id="W.05" sampledSeconds="17.60" nVehEntered="4" nVehLeft="3" nVehSeen="5" meanSpeed="3.07" meanTimeLoss="2.84" meanOccupancy="4.67" maxOccupancy="16.93" meanMaxJamLengthInVehicles="0.75" meanMaxJamLengthInMeters="3.85" maxJamLengthInVehicles="1" maxJamLengthInMeters="7.10" jamLengthInVehiclesSum="56" jamLengthInMetersSum="288.40" meanHaltingDuration="8.20" maxHaltingDuration="14.60" haltingDurationSum="16.40" meanIntervalHaltingDuration="6.10" maxIntervalHaltingDuration="10.40" intervalHaltingDurationSum="12.20" startedHalts="1.00" meanVehicleNumber="1.21" maxVehicleNumber="2" />
   <interval begin="30.00" end="45.00" id="E.01" sampledSeconds="31.05" nVehEntered="1" nVehLeft="4" nVehSeen="4" meanSpeed="9.40" meanTimeLoss="2.87" meanOccupancy="10.41" maxOccupancy="14.66" meanMaxJamLengthInVehicles="0.00" meanMaxJamLengthInMeters="0.00" maxJamLengthInVehicles="0" maxJamLengthInMeters="0.00" jamLengthInVehiclesSum="0" jamLengthInMetersSum="0.00" meanHaltingDuration="0.00" maxHaltingDuration="0.00" haltingDurationSum="0.00" meanIntervalHaltingDuration="0.00" maxIntervalHaltingDuration="0.00" intervalHaltingDurationSum="0.00" startedHalts="0.00" meanVehicleNumber="2.08" maxVehicleNumber="3" />
   <interval begin="30.00" end="45.00" id="E.02" sampledSeconds="14.49" nVehEntered="4" nVehLeft="4" nVehSeen="5" meanSpeed="9.04" meanTimeLoss="1.06" meanOccupancy="4.82" maxOccupancy="11.97" meanMaxJamLengthInVehicles="0.00" meanMaxJamLengthInMeters="0.00" maxJamLengthInVehicles="0" maxJamLengthInMeters="0.00" jamLengthInVehiclesSum="0" jamLengthInMetersSum="0.00" meanHaltingDuration="0.00" maxHaltingDuration="0.00" haltingDurationSum="0.00" meanIntervalHaltingDuration="0.00" maxIntervalHaltingDuration="0.00" intervalHaltingDurationSum="0.00" startedHalts="0.00" meanVehicleNumber="1.00" maxVehicleNumber="2" />
   <interval begin="30.00" end="45.00" id="E.03" sampledSeconds="6.65" nVehEntered="3" nVehLeft="3" nVehSeen="3" meanSpeed="9.60" meanTimeLoss="0.63" meanOccupancy="2.21" maxOccupancy="10.08" meanMaxJamLengthInVehicles="0.00" meanMaxJamLengthInMeters="0.00" maxJamLengthInVehicles="0" maxJamLengthInMeters="0.00" jamLengthInVehiclesSum="0" jamLengthInMetersSum="0.00" meanHaltingDuration="0.00" maxHaltingDuration="0.00" haltingDurationSum="0.00" meanIntervalHaltingDuration="0.00" maxIntervalHaltingDuration="0.00" intervalHaltingDurationSum="0.00" startedHalts="0.00" meanVehicleNumber="0.47" maxVehicleNumber="1" />
   <interval begin="30.00" end="45.00" id="E.04" sampledSeconds="6.65" nVehEntered="3" nVehLeft="3" nVehSeen="3" meanSpeed="9.60" meanTimeLoss="0.63" meanOccupancy="2.21" maxOccupancy="10.08" meanMaxJamLengthInVehicles="0.00" meanMaxJamLengthInMeters="0.00" maxJamLengthInVehicles="0" maxJamLengthInMeters="0.00" jamLengthInVehiclesSum="0" jamLengthInMetersSum="0.00" meanHaltingDuration="0.00" maxHaltingDuration="0.00" haltingDurationSum="0.00" meanIntervalHaltingDuration="0.00" maxIntervalHaltingDuration="0.00" intervalHaltingDurationSum="0.00" startedHalts="0.00" meanVehicleNumber="0.47" maxVehicleNumber="1" />
   <interval begin="30.00" end="45.00" id="E.05" sampledSeconds="49.80" nVehEntered="3" nVehLeft="2" nVehSeen="5" meanSpeed="4.58" meanTimeLoss="6.70" meanOccupancy="17.83" maxOccupancy="30.00" meanMaxJamLengthInVehicles="1.79" meanMaxJamLengthInMeters="18.28" maxJamLengthInVehicles="2" maxJamLengthInMeters="20.97" jamLengthInVehiclesSum="134" jamLengthInMetersSum="1371.34" meanHaltingDuration="25.20" maxHaltingDuration="25.20" haltingDurationSum="25.20" meanIntervalHaltingDuration="13.60" maxIntervalHaltingDuration="13.60" intervalHaltingDurationSum="13.60" startedHalts="0.00" meanVehicleNumber="3.32" maxVehicleNumber="5" />
   <interval begin="30.00" end="45.00" id="E.06" sampledSeconds="21.91" nVehEntered="5" nVehLeft="4" nVehSeen="6" meanSpeed="3.34" meanTimeLoss="2.70" meanOccupancy="5.94" maxOccupancy="16.55" meanMaxJamLengthInVehicles="0.71" meanMaxJamLengthInMeters="3.65" maxJamLengthInVehicles="1" maxJamLengthInMeters="14.00" jamLengthInVehiclesSum="53" jamLengthInMetersSum="274.00" meanHaltingDuration="6.33" maxHaltingDuration="16.80" haltingDurationSum="19.00" meanIntervalHaltingDuration="4.20" maxIntervalHaltingDuration="10.40" intervalHaltingDurationSum="12.60" startedHalts="2.00" meanVehicleNumber="1.49" maxVehicleNumber="3" />
   <interval begin="30.00" end="45.00" id="S.01" sampledSeconds="74.42" nVehEntered="3" nVehLeft="2" nVehSeen="7" meanSpeed="4.42" meanTimeLoss="6.82" meanOccupancy="23.37" maxOccupancy="34.57" meanMaxJamLengthInVehicles="2.28" meanMaxJamLengthInMeters="13.57" maxJamLengthInVehicles="4" maxJamLengthInMeters="26.59" jamLengthInVehiclesSum="171" jamLengthInMetersSum="1018.08" meanHaltingDuration="12.13" maxHaltingDuration="16.20" haltingDurationSum="36.40" meanIntervalHaltingDuration="11.73" maxIntervalHaltingDuration="15.00" intervalHaltingDurationSum="35.20" startedHalts="3.00" meanVehicleNumber="4.97" maxVehicleNumber="6" />