<?xml version="1.0" encoding="UTF-8"?>

<!-- generated on 07/29/20 10:58:57 by Eclipse SUMO Version 1.6.0
<configuration xmlns:xsi="http://www.w3.org/2001/XMLSchema-instance" xsi:noNamespaceSchemaLocation="http://sumo.dlr.de/xsd/sumoConfiguration.xsd">

    <input>
        <net-file value="./project/ITLS.net.xml"/>
        <route-files value="./project/ITLS.rou.xml"/>
        <additional-files value="./project/ITLS.add.xml"/>
    </input>

    <output>
        <tripinfo-output value="./project/./output/output-tripinfos.xml"/>
    </output>

    <time>
        <begin value="0"/>
        <step-length value="0.2"/>
    </time>

    <processing>
        <lateral-resolution value="0.8"/>
    </processing>

    <report>
        <verbose value="true"/>
        <no-warnings value="true"/>
        <duration-log.disable value="false"/>
    </report>

    <traci_server>
        <remote-port value="60675"/>
    </traci_server>

    <random_number>
        <random value="true"/>
    </random_number>

    <gui_only>
        <gui-settings-file value="./project/view.settings.xml"/>
        <quit-on-end value="true"/>
        <start value="true"/>
        <tracker-interval value="0.2"/>
    </gui_only>

</configuration>
-->

<detector xmlns:xsi="http://www.w3.org/2001/XMLSchema-instance" xsi:noNamespaceSchemaLocation="http://sumo.dlr.de/xsd/det_e2_file.xsd">
   <interval begin="0.00" end="15.00" id="W.01" sampledSeconds="0.00" nVehEntered="0" nVehLeft="0" nVehSeen="0" meanSpeed="-1.00" meanTimeLoss="-1.00" meanOccupancy="0.00" maxOccupancy="0.00" meanMaxJamLengthInVehicles="0.00" meanMaxJamLengthInMeters="0.00" maxJamLengthInVehicles="0" maxJamLengthInMeters="0.00" jamLengthInVehiclesSum="0" jamLengthInMetersSum="0.00" meanHaltingDuration="0.00" maxHaltingDuration="0.00" haltingDurationSum="0.00" meanIntervalHaltingDuration="0.00" maxIntervalHaltingDuration="0.00" intervalHaltingDurationSum="0.00" startedHalts="0.00" meanVehicleNumber="0.00" maxVehicleNumber="0" />
   <interval begin="0.00" end="15.00" id="W.02" sampledSeconds="0.00" nVehEntered="0" nVehLeft="0" nVehSeen="0" meanSpeed="-1.00" meanTimeLoss="-1.00" meanOccupancy="0.00" maxOccupancy="0.00" meanMaxJamLengthInVehicles="0.00" meanMaxJamLengthInMeters="0.00" maxJamLengthInVehicles="0" maxJamLengthInMeters="0.00" jamLengthInVehiclesSum="0" jamLengthInMetersSum="0.00" meanHaltingDuration="0.00" maxHaltingDuration="0.00" haltingDurationSum="0.00" meanIntervalHaltingDuration="0.00" maxIntervalHaltingDuration="0.00" intervalHaltingDurationSum="0.00" startedHalts="0.00" meanVehicleNumber="0.00" maxVehicleNumber="0" />
   <interval begin="0.00" end="15.00" id="W.03" sampledSeconds="0.00" nVehEntered="0" nVehLeft="0" nVehSeen="0" meanSpeed="-1.00" meanTimeLoss="-1.00" meanOccupancy="0.00" maxOccupancy="0.00" meanMaxJamLengthInVehicles="0.00" meanMaxJamLengthInMeters="0.00" maxJamLengthInVehicles="0" maxJamLengthInMeters="0.00" jamLengthInVehiclesSum="0" jamLengthInMetersSum="0.00" meanHaltingDuration="0.00" maxHaltingDuration="0.00" haltingDurationSum="0.00" meanIntervalHaltingDuration="0.00" maxIntervalHaltingDuration="0.00" intervalHaltingDurationSum="0.00" startedHalts="0.00" meanVehicleNumber="0.00" maxVehicleNumber="0" />
   <interval begin="0.00" end="15.00" id="W.04" sampledSeconds="5.73" nVehEntered="2" nVehLeft="0" nVehSeen="2" meanSpeed="15.71" meanTimeLoss="0.18" meanOccupancy="1.34" maxOccupancy="7.17" meanMaxJamLengthInVehicles="0.00" meanMaxJamLengthInMeters="0.00" maxJamLengthInVehicles="0" maxJamLengthInMeters="0.00" jamLengthInVehiclesSum="0" jamLengthInMetersSum="0.00" meanHaltingDuration="0.00" maxHaltingDuration="0.00" haltingDurationSum="0.00" meanIntervalHaltingDuration="0.00" maxIntervalHaltingDuration="0.00" intervalHaltingDurationSum="0.00" startedHalts="0.00" meanVehicleNumber="0.40" maxVehicleNumber="2" />
   <interval begin="0.00" end="15.00" id="W.05" sampledSeconds="1.70" nVehEntered="2" nVehLeft="2" nVehSeen="2" meanSpeed="15.87" meanTimeLoss="0.05" meanOccupancy="0.26" maxOccupancy="3.59" meanMaxJamLengthInVehicles="0.00" meanMaxJamLengthInMeters="0.00" maxJamLengthInVehicles="0" maxJamLengthInMeters="0.00" jamLengthInVehiclesSum="0" jamLengthInMetersSum="0.00" meanHaltingDuration="0.00" maxHaltingDuration="0.00" haltingDurationSum="0.00" meanIntervalHaltingDuration="0.00" maxIntervalHaltingDuration="0.00" intervalHaltingDurationSum="0.00" startedHalts="0.00" meanVehicleNumber="0.15" maxVehicleNumber="1" />
   <interval begin="0.00" end="15.00" id="E.01" sampledSeconds="1.18" nVehEntered="3" nVehLeft="2" nVehSeen="3" meanSpeed="6.95" meanTimeLoss="0.23" meanOccupancy="0.11" maxOccupancy="2.56" meanMaxJamLengthInVehicles="0.00" meanMaxJamLengthInMeters="0.00" maxJamLengthInVehicles="0" maxJamLengthInMeters="0.00" jamLengthInVehiclesSum="0" jamLengthInMetersSum="0.00" meanHaltingDuration="0.00" maxHaltingDuration="0.00" haltingDurationSum="0.00" meanIntervalHaltingDuration="0.00" maxIntervalHaltingDuration="0.00" intervalHaltingDurationSum="0.00" startedHalts="0.00" meanVehicleNumber="0.11" maxVehicleNumber="1" />
   <interval begin="0.00" end="15.00" id="E.02" sampledSeconds="12.47" nVehEntered="4" nVehLeft="3" nVehSeen="4" meanSpeed="10.58" meanTimeLoss="1.10" meanOccupancy="3.38" maxOccupancy="8.55" meanMaxJamLengthInVehicles="0.00" meanMaxJamLengthInMeters="0.00" maxJamLengthInVehicles="0" maxJamLengthInMeters="0.00" jamLengthInVehiclesSum="0" jamLengthInMetersSum="0.00" meanHaltingDuration="0.00" maxHaltingDuration="0.00" haltingDurationSum="0.00" meanIntervalHaltingDuration="0.00" maxIntervalHaltingDuration="0.00" intervalHaltingDurationSum="0.00" startedHalts="0.00" meanVehicleNumber="0.84" maxVehicleNumber="2" />
   <interval begin="0.00" end="15.00" id="E.03" sampledSeconds="13.29" nVehEntered="3" nVehLeft="2" nVehSeen="3" meanSpeed="12.70" meanTimeLoss="0.95" meanOccupancy="2.81" maxOccupancy="14.45" meanMaxJamLengthInVehicles="0.00" meanMaxJamLengthInMeters="0.00" maxJamLengthInVehicles="0" maxJamLengthInMeters="0.00" jamLengthInVehiclesSum="0" jamLengthInMetersSum="0.00" meanHaltingDuration="0.00" maxHaltingDuration="0.00" haltingDurationSum="0.00" meanIntervalHaltingDuration="0.00" maxIntervalHaltingDuration="0.00" intervalHaltingDurationSum="0.00" startedHalts="0.00" meanVehicleNumber="0.89" maxVehicleNumber="3" />
   <interval begin="0.00" end="15.00" id="E.04" sampledSeconds="3.29" nVehEntered="2" nVehLeft="1" nVehSeen="2" meanSpeed="9.23" meanTimeLoss="0.74" meanOccupancy="0.77" maxOccupancy="8.34" meanMaxJamLengthInVehicles="0.00" meanMaxJamLengthInMeters="0.00" maxJamLengthInVehicles="0" maxJamLengthInMeters="0.00" jamLengthInVehiclesSum="0" jamLengthInMetersSum="0.00" meanHaltingDuration="0.00" maxHaltingDuration="0.00" haltingDurationSum="0.00" meanIntervalHaltingDuration="0.00" maxIntervalHaltingDuration="0.00" intervalHaltingDurationSum="0.00" startedHalts="0.00" meanVehicleNumber="0.23" maxVehicleNumber="2" />
   <interval begin="0.00" end="15.00" id="E.05" sampledSeconds="2.60" nVehEntered="1" nVehLeft="0" nVehSeen="1" meanSpeed="12.96" meanTimeLoss="0.57" meanOccupancy="1.48" maxOccupancy="8.55" meanMaxJamLengthInVehicles="0.00" meanMaxJamLengthInMeters="0.00" maxJamLengthInVehicles="0" maxJamLengthInMeters="0.00" jamLengthInVehiclesSum="0" jamLengthInMetersSum="0.00" meanHaltingDuration="0.00" maxHaltingDuration="0.00" haltingDurationSum="0.00" meanIntervalHaltingDuration="0.00" maxIntervalHaltingDuration="0.00" intervalHaltingDurationSum="0.00" startedHalts="0.00" meanVehicleNumber="0.17" maxVehicleNumber="1" />
   <interval begin="0.00" end="15.00" id="E.06" sampledSeconds="1.29" nVehEntered="1" nVehLeft="1" nVehSeen="1" meanSpeed="12.42" meanTimeLoss="0.32" meanOccupancy="0.37" maxOccupancy="8.34" meanMaxJamLengthInVehicles="0.00" meanMaxJamLengthInMeters="0.00" maxJamLengthInVehicles="0" maxJamLengthInMeters="0.00" jamLengthInVehiclesSum="0" jamLengthInMetersSum="0.00" meanHaltingDuration="0.00" maxHaltingDuration="0.00" haltingDurationSum="0.00" meanIntervalHaltingDuration="0.00" maxIntervalHaltingDuration="0.00" intervalHaltingDurationSum="0.00" startedHalts="0.00" meanVehicleNumber="0.09" maxVehicleNumber="1" />
   <interval begin="0.00" end="15.00" id="S.01" sampledSeconds="0.57" nVehEntered="1" nVehLeft="0" nVehSeen="1" meanSpeed="11.18" meanTimeLoss="0.06" meanOccupancy="0.11" maxOccupancy="3.83" meanMaxJamLengthInVehicles="0.00" meanMaxJamLengthInMeters="0.00" maxJamLengthInVehicles="0" maxJamLengthInMeters="0.00" jamLengthInVehiclesSum="0" jamLengthInMetersSum="0.00" meanHaltingDuration="0.00" maxHaltingDuration="0.00" haltingDurationSum="0.00" meanIntervalHaltingDuration="0.00" maxIntervalHaltingDuration="0.00" intervalHaltingDurationSum="0.00" startedHalts="0.00" meanVehicleNumber="0.04" maxVehicleNumber="1" />
   <interval begin="0.00" end="15.00" id="S.02" sampledSeconds="10.15" nVehEntered="3" nVehLeft="2" nVehSeen="3" meanSpeed="11.42" meanTimeLoss="0.34" meanOccupancy="3.51" maxOccupancy="10.73" meanMaxJamLengthInVehicles="0.00" meanMaxJamLengthInMeters="0.00" maxJamLengthInVehicles="0" maxJamLengthInMeters="0.00" jamLengthInVehiclesSum="0" jamLengthInMetersSum="0.00" meanHaltingDuration="0.00" maxHaltingDuration="0.00" haltingDurationSum="0.00" meanIntervalHaltingDuration="0.00" maxIntervalHaltingDuration="0.00" intervalHaltingDurationSum="0.00" startedHalts="0.00" meanVehicleNumber="0.71" maxVehicleNumber="2" />
   <interval begin="0.00" end="15.00" id="S.03" sampledSeconds="20.51" nVehEntered="3" nVehLeft="0" nVehSeen="3" meanSpeed="11.51" meanTimeLoss="0.73" meanOccupancy="6.45" maxOccupancy="18.40" meanMaxJamLengthInVehicles="0.00" meanMaxJamLengthInMeters="0.00" maxJamLengthInVehicles="0" maxJamLengthInMeters="0.00" jamLengthInVehiclesSum="0" jamLengthInMetersSum="0.00" meanHaltingDuration="0.00" maxHaltingDuration="0.00" haltingDurationSum="0.00" meanIntervalHaltingDuration="0.00" maxIntervalHaltingDuration="0.00" intervalHaltingDurationSum="0.00" startedHalts="0.00" meanVehicleNumber="1.39" maxVehicleNumber="3" />
   <interval begin="0.00" end="15.00" id="N.01" sampledSeconds="0.00" nVehEntered="0" nVehLeft="0" nVehSeen="0" meanSpeed="-1.00" meanTimeLoss="-1.00" meanOccupancy="0.00" maxOccupancy="0.00" meanMaxJamLengthInVehicles="0.00" meanMaxJamLengthInMeters="0.00" maxJamLengthInVehicles="0" maxJamLengthInMeters="0.00" jamLengthInVehiclesSum="0" jamLengthInMetersSum="0.00" meanHaltingDuration="0.00" maxHaltingDuration="0.00" haltingDurationSum="0.00" meanIntervalHaltingDuration="0.00" maxIntervalHaltingDuration="0.00" intervalHaltingDurationSum="0.00" startedHalts="0.00" meanVehicleNumber="0.00" maxVehicleNumber="0" />
   <interval begin="0.00" end="15.00" id="N.02" sampledSeconds="3.18" nVehEntered="1" nVehLeft="0" nVehSeen="1" meanSpeed="14.17" meanTimeLoss="0.15" meanOccupancy="0.84" maxOccupancy="4.06" meanMaxJamLengthInVehicles="0.00" meanMaxJamLengthInMeters="0.00" maxJamLengthInVehicles="0" maxJamLengthInMeters="0.00" jamLengthInVehiclesSum="0" jamLengthInMetersSum="0.00" meanHaltingDuration="0.00" maxHaltingDuration="0.00" haltingDurationSum="0.00" meanIntervalHaltingDuration="0.00" maxIntervalHaltingDuration="0.00" intervalHaltingDurationSum="0.00" startedHalts="0.00" meanVehicleNumber="0.21" maxVehicleNumber="1" />
   <interval begin="0.00" end="15.00" id="N.03" sampledSeconds="3.18" nVehEntered="1" nVehLeft="0" nVehSeen="1" meanSpeed="14.17" meanTimeLoss="0.15" meanOccupancy="0.84" maxOccupancy="4.06" meanMaxJamLengthInVehicles="0.00" meanMaxJamLengthInMeters="0.00" maxJamLengthInVehicles="0" maxJamLengthInMeters="0.00" jamLengthInVehiclesSum="0" jamLengthInMetersSum="0.00" meanHaltingDuration="0.00" maxHaltingDuration="0.00" haltingDurationSum="0.00" meanIntervalHaltingDuration="0.00" maxIntervalHaltingDuration="0.00" intervalHaltingDurationSum="0.00" startedHalts="0.00" meanVehicleNumber="0.21" maxVehicleNumber="1" />
   <interval begin="15.00" end="30.00" id="W.01" sampledSeconds="24.12" nVehEntered="3" nVehLeft="0" nVehSeen="3" meanSpeed="12.23" meanTimeLoss="0.73" meanOccupancy="8.61" maxOccupancy="17.22" meanMaxJamLengthInVehicles="0.00" meanMaxJamLengthInMeters="0.00" maxJamLengthInVehicles="0" maxJamLengthInMeters="0.00" jamLengthInVehiclesSum="0" jamLengthInMetersSum="0.00" meanHaltingDuration="0.00" maxHaltingDuration="0.00" haltingDurationSum="0.00" meanIntervalHaltingDuration="0.00" maxIntervalHaltingDuration="0.00" intervalHaltingDurationSum="0.00" startedHalts="0.00" meanVehicleNumber="1.63" maxVehicleNumber="3" />
   <interval begin="15.00" end="30.00" id="W.02" sampledSeconds="9.78" nVehEntered="1" nVehLeft="1" nVehSeen="1" meanSpeed="14.77" meanTimeLoss="0.09" meanOccupancy="2.26" maxOccupancy="3.59" meanMaxJamLengthInVehicles="0.00" meanMaxJamLengthInMeters="0.00" maxJamLengthInVehicles="0" maxJamLengthInMeters="0.00" jamLengthInVehiclesSum="0" jamLengthInMetersSum="0.00" meanHaltingDuration="0.00" maxHaltingDuration="0.00" haltingDurationSum="0.00" meanIntervalHaltingDuration="0.00" maxIntervalHaltingDuration="0.00" intervalHaltingDurationSum="0.00" startedHalts="0.00" meanVehicleNumber="0.67" maxVehicleNumber="1" />
   <interval begin="15.00" end="30.00" id="W.03" sampledSeconds="0.00" nVehEntered="0" nVehLeft="0" nVehSeen="0" meanSpeed="-1.00" meanTimeLoss="-1.00" meanOccupancy="0.00" maxOccupancy="0.00" meanMaxJamLengthInVehicles="0.00" meanMaxJamLengthInMeters="0.00" maxJamLengthInVehicles="0" maxJamLengthInMeters="0.00" jamLengthInVehiclesSum="0" jamLengthInMetersSum="0.00" meanHaltingDuration="0.00" maxHaltingDuration="0.00" haltingDurationSum="0.00" meanIntervalHaltingDuration="0.00" maxIntervalHaltingDuration="0.00" intervalHaltingDurationSum="0.00" startedHalts="0.00" meanVehicleNumber="0.00" maxVehicleNumber="0" />
   <interval begin="15.00" end="30.00" id="W.04" sampledSeconds="22.00" nVehEntered="0" nVehLeft="1" nVehSeen="2" meanSpeed="7.64" meanTimeLoss="6.03" meanOccupancy="5.26" maxOccupancy="7.17" meanMaxJamLengthInVehicles="0.44" meanMaxJamLengthInMeters="2.20" maxJamLengthInVehicles="1" maxJamLengthInMeters="5.00" jamLengthInVehiclesSum="33" jamLengthInMetersSum="165.00" meanHaltingDuration="7.60" maxHaltingDuration="7.60" haltingDurationSum="7.60" meanIntervalHaltingDuration="7.60" maxIntervalHaltingDuration="7.60" intervalHaltingDurationSum="7.60" startedHalts="1.00" meanVehicleNumber="1.47" maxVehicleNumber="2" />
   <interval begin="15.00" end="30.00" id="W.05" sampledSeconds="8.00" nVehEntered="1" nVehLeft="0" nVehSeen="1" meanSpeed="2.34" meanTimeLoss="6.90" meanOccupancy="1.91" maxOccupancy="3.59" meanMaxJamLengthInVehicles="0.21" meanMaxJamLengthInMeters="1.07" maxJamLengthInVehicles="1" maxJamLengthInMeters="5.00" jamLengthInVehiclesSum="16" jamLengthInMetersSum="80.00" meanHaltingDuration="4.20" maxHaltingDuration="4.20" haltingDurationSum="4.20" meanIntervalHaltingDuration="4.20" maxIntervalHaltingDuration="4.20" intervalHaltingDurationSum="4.20" startedHalts="1.00" meanVehicleNumber="0.53" maxVehicleNumber="1" />
   <interval begin="15.00" end="30.00" id="E.01" sampledSeconds="20.76" nVehEntered="4" nVehLeft="2" nVehSeen="5" meanSpeed="12.51" meanTimeLoss="1.41" meanOccupancy="4.89" maxOccupancy="14.66" meanMaxJamLengthInVehicles="0.00" meanMaxJamLengthInMeters="0.00" maxJamLengthInVehicles="0" maxJamLengthInMeters="0.00" jamLengthInVehiclesSum="0" jamLengthInMetersSum="0.00" meanHaltingDuration="0.00" maxHaltingDuration="0.00" haltingDurationSum="0.00" meanIntervalHaltingDuration="0.00" maxIntervalHaltingDuration="0.00" intervalHaltingDurationSum="0.00" startedHalts="0.00" meanVehicleNumber="1.41" maxVehicleNumber="3" />
   <interval begin="15.00" end="30.00" id="E.02" sampledSeconds="30.73" nVehEntered="2" nVehLeft="2" nVehSeen="3" meanSpeed="14.53" meanTimeLoss="1.12" meanOccupancy="10.16" maxOccupancy="14.66" meanMaxJamLengthInVehicles="0.00" meanMaxJamLengthInMeters="0.00" maxJamLengthInVehicles="0" maxJamLengthInMeters="0.00" jamLengthInVehiclesSum="0" jamLengthInMetersSum="0.00" meanHaltingDuration="0.00" maxHaltingDuration="0.00" haltingDurationSum="0.00" meanIntervalHaltingDuration="0.00" maxIntervalHaltingDuration="0.00" intervalHaltingDurationSum="0.00" startedHalts="0.00" meanVehicleNumber="2.07" maxVehicleNumber="3" />
   <interval begin="15.00" end="30.00" id="E.03" sampledSeconds="1.40" nVehEntered="0" nVehLeft="1" nVehSeen="1" meanSpeed="5.64" meanTimeLoss="0.88" meanOccupancy="0.29" maxOccupancy="3.06" meanMaxJamLengthInVehicles="0.00" meanMaxJamLengthInMeters="0.00" maxJamLengthInVehicles="0" maxJamLengthInMeters="0.00" jamLengthInVehiclesSum="0" jamLengthInMetersSum="0.00" meanHaltingDuration="0.00" maxHaltingDuration="0.00" haltingDurationSum="0.00" meanIntervalHaltingDuration="0.00" maxIntervalHaltingDuration="0.00" intervalHaltingDurationSum="0.00" startedHalts="0.00" meanVehicleNumber="0.09" maxVehicleNumber="1" />
   <interval begin="15.00" end="30.00" id="E.04" sampledSeconds="7.00" nVehEntered="1" nVehLeft="2" nVehSeen="2" meanSpeed="6.64" meanTimeLoss="2.04" meanOccupancy="1.43" maxOccupancy="6.11" meanMaxJamLengthInVehicles="0.00" meanMaxJamLengthInMeters="0.00" maxJamLengthInVehicles="0" maxJamLengthInMeters="0.00" jamLengthInVehiclesSum="0" jamLengthInMetersSum="0.00" meanHaltingDuration="0.00" maxHaltingDuration="0.00" haltingDurationSum="0.00" meanIntervalHaltingDuration="0.00" maxIntervalHaltingDuration="0.00" intervalHaltingDurationSum="0.00" startedHalts="0.00" meanVehicleNumber="0.47" maxVehicleNumber="2" />
   <interval begin="15.00" end="30.00" id="E.05" sampledSeconds="26.00" nVehEntered="2" nVehLeft="1" nVehSeen="3" meanSpeed="3.13" meanTimeLoss="7.02" meanOccupancy="6.91" maxOccupancy="11.61" meanMaxJamLengthInVehicles="0.99" meanMaxJamLengthInMeters="5.44" maxJamLengthInVehicles="2" maxJamLengthInMeters="11.92" jamLengthInVehiclesSum="74" jamLengthInMetersSum="407.72" meanHaltingDuration="8.40" maxHaltingDuration="11.20" haltingDurationSum="16.80" meanIntervalHaltingDuration="8.40" maxIntervalHaltingDuration="11.20" intervalHaltingDurationSum="16.80" startedHalts="2.00" meanVehicleNumber="1.73" maxVehicleNumber="2" />
   <interval begin="15.00" end="30.00" id="E.06" sampledSeconds="10.60" nVehEntered="1" nVehLeft="0" nVehSeen="1" meanSpeed="3.35" meanTimeLoss="8.46" meanOccupancy="6.05" maxOccupancy="8.55" meanMaxJamLengthInVehicles="0.29" meanMaxJamLengthInMeters="4.11" maxJamLengthInVehicles="1" maxJamLengthInMeters="14.00" jamLengthInVehiclesSum="22" jamLengthInMetersSum="308.00" meanHaltingDuration="5.40" maxHaltingDuration="5.40" haltingDurationSum="5.40" meanIntervalHaltingDuration="5.40" maxIntervalHaltingDuration="5.40" intervalHaltingDurationSum="5.40" startedHalts="1.00" meanVehicleNumber="0.71" maxVehicleNumber="1" />
   <interval begin="15.00" end="30.00" id="S.01" sampledSeconds="43.47" nVehEntered="4" nVehLeft="1" nVehSeen="5" meanSpeed="9.48" meanTimeLoss="1.61" meanOccupancy="10.96" maxOccupancy="15.33" meanMaxJamLengthInVehicles="0.09" meanMaxJamLengthInMeters="0.47" maxJamLengthInVehicles="1" maxJamLengthInMeters="5.00" jamLengthInVehiclesSum="7" jamLengthInMetersSum="35.00" meanHaltingDuration="2.40" maxHaltingDuration="2.40" haltingDurationSum="2.40" meanIntervalHaltingDuration="2.40" maxIntervalHaltingDuration="2.40" intervalHaltingDurationSum="2.40" startedHalts="1.00" meanVehicleNumber="2.92" maxVehicleNumber="4" />
   <interval begin="15.00" end="30.00" id="S.02" sampledSeconds="6.69" nVehEntered="2" nVehLeft="1" nVehSeen="3" meanSpeed="7.23" meanTimeLoss="1.03" meanOccupancy="2.59" maxOccupancy="16.48" meanMaxJamLengthInVehicles="0.00" meanMaxJamLengthInMeters="0.00" maxJamLengthInVehicles="0" maxJamLengthInMeters="0.00" jamLengthInVehiclesSum="0" jamLengthInMetersSum="0.00" meanHaltingDuration="0.00" maxHaltingDuration="0.00" haltingDurationSum="0.00" meanIntervalHaltingDuration="0.00" maxIntervalHaltingDuration="0.00" intervalHaltingDurationSum="0.00" startedHalts="0.00" meanVehicleNumber="0.47" maxVehicleNumber="2" />
   <interval begin="15.00" end="30.00" id="S.03" sampledSeconds="48.07" nVehEntered="1" nVehLeft="0" nVehSeen="4" meanSpeed="3.28" meanTimeLoss="8.92" meanOccupancy="20.14" maxOccupancy="31.04" meanMaxJamLengthInVehicles="1.65" meanMaxJamLengthInMeters="12.85" maxJamLengthInVehicles="3" maxJamLengthInMeters="27.44" jamLengthInVehiclesSum="124" jamLengthInMetersSum="963.95" meanHaltingDuration="9.27" maxHaltingDuration="12.20" haltingDurationSum="27.80" meanIntervalHaltingDuration="9.27" maxIntervalHaltingDuration="12.20" intervalHaltingDurationSum="27.80" startedHalts="3.00" meanVehicleNumber="3.21" maxVehicleNumber="4" />
   <interval begin="15.00" end="30.00" id="N.01" sampledSeconds="5.60" nVehEntered="1" nVehLeft="0" nVehSeen="1" meanSpeed="12.10" meanTimeLoss="0.22" meanOccupancy="1.49" maxOccupancy="4.06" meanMaxJamLengthInVehicles="0.00" meanMaxJamLengthInMeters="0.00" maxJamLengthInVehicles="0" maxJamLengthInMeters="0.00" jamLengthInVehiclesSum="0" jamLengthInMetersSum="0.00" meanHaltingDuration="0.00" maxHaltingDuration="0.00" haltingDurationSum="0.00" meanIntervalHaltingDuration="0.00" maxIntervalHaltingDuration="0.00" intervalHaltingDurationSum="0.00" startedHalts="0.00" meanVehicleNumber="0.37" maxVehicleNumber="1" />
   <interval begin="15.00" end="30.00" id="N.02" sampledSeconds="21.48" nVehEntered="3" nVehLeft="3" nVehSeen="4" meanSpeed="10.64" meanTimeLoss="0.40" meanOccupancy="8.23" maxOccupancy="15.42" meanMaxJamLengthInVehicles="0.00" meanMaxJamLengthInMeters="0.00" maxJamLengthInVehicles="0" maxJamLengthInMeters="0.00" jamLengthInVehiclesSum="0" jamLengthInMetersSum="0.00" meanHaltingDuration="0.00" maxHaltingDuration="0.00" haltingDurationSum="0.00" meanIntervalHaltingDuration="0.00" maxIntervalHaltingDuration="0.00" intervalHaltingDurationSum="0.00" startedHalts="0.00" meanVehicleNumber="1.47" maxVehicleNumber="2" />
   <interval begin="15.00" end="30.00" id="N.03" sampledSeconds="44.61" nVehEntered="3" nVehLeft="0" nVehSeen="4" meanSpeed="7.77" meanTimeLoss="3.87" meanOccupancy="16.11" maxOccupancy="23.54" meanMaxJamLengthInVehicles="0.44" meanMaxJamLengthInMeters="2.27" maxJamLengthInVehicles="2" maxJamLengthInMeters="11.94" jamLengthInVehiclesSum="33" jamLengthInMetersSum="170.61" meanHaltingDuration="4.30" maxHaltingDuration="7.00" haltingDurationSum="8.60" meanIntervalHaltingDuration="4.30" maxIntervalHaltingDuration="7.00" intervalHaltingDurationSum="8.60" startedHalts="2.00" meanVehicleNumber="2.99" maxVehicleNumber="4" />
   <interval begin="30.00" end="45.00" id="W.01" sampledSeconds="17.27" nVehEntered="1" nVehLeft="3" nVehSeen="4" meanSpeed="12.53" meanTimeLoss="0.83" meanOccupancy="5.89" maxOccupancy="17.22" meanMaxJamLengthInVehicles="0.00" meanMaxJamLengthInMeters="0.00" maxJamLengthInVehicles="0" maxJamLengthInMeters="0.00" jamLengthInVehiclesSum="0" jamLengthInMetersSum="0.00" meanHaltingDuration="0.00" maxHaltingDuration="0.00" haltingDurationSum="0.00" meanIntervalHaltingDuration="0.00" maxIntervalHaltingDuration="0.00" intervalHaltingDurationSum="0.00" startedHalts="0.00" meanVehicleNumber="1.17" maxVehicleNumber="3" />
   <interval begin="30.00" end="45.00" id="W.02" sampledSeconds="0.00" nVehEntered="0" nVehLeft="0" nVehSeen="0" meanSpeed="-1.00" meanTimeLoss="-1.00" meanOccupancy="0.00" maxOccupancy="0.00" meanMaxJamLengthInVehicles="0.00" meanMaxJamLengthInMeters="0.00" maxJamLengthInVehicles="0" maxJamLengthInMeters="0.00" jamLengthInVehiclesSum="0" jamLengthInMetersSum="0.00" meanHaltingDuration="0.00" maxHaltingDuration="0.00" haltingDurationSum="0.00" meanIntervalHaltingDuration="0.00" maxIntervalHaltingDuration="0.00" intervalHaltingDurationSum="0.00" startedHalts="0.00" meanVehicleNumber="0.00" maxVehicleNumber="0" />
   <interval begin="30.00" end="45.00" id="W.03" sampledSeconds="0.00" nVehEntered="0" nVehLeft="0" nVehSeen="0" meanSpeed="-1.00" meanTimeLoss="-1.00" meanOccupancy="0.00" maxOccupancy="0.00" meanMaxJamLengthInVehicles="0.00" meanMaxJamLengthInMeters="0.00" maxJamLengthInVehicles="0" maxJamLengthInMeters="0.00" jamLengthInVehiclesSum="0" jamLengthInMetersSum="0.00" meanHaltingDuration="0.00" maxHaltingDuration="0.00" haltingDurationSum="0.00" meanIntervalHaltingDuration="0.00" maxIntervalHaltingDuration="0.00" intervalHaltingDurationSum="0.00" startedHalts="0.00" meanVehicleNumber="0.00" maxVehicleNumber="0" />
   <interval begin="30.00" end="45.00" id="W.04" sampledSeconds="35.08" nVehEntered="2" nVehLeft="1" nVehSeen="3" meanSpeed="7.23" meanTimeLoss="6.22" meanOccupancy="13.88" maxOccupancy="20.52" meanMaxJamLengthInVehicles="0.69" meanMaxJamLengthInMeters="3.47" maxJamLengthInVehicles="1" maxJamLengthInMeters="5.00" jamLengthInVehiclesSum="52" jamLengthInMetersSum="260.00" meanHaltingDuration="18.00" maxHaltingDuration="18.00" haltingDurationSum="18.00" meanIntervalHaltingDuration="10.40" maxIntervalHaltingDuration="10.40" intervalHaltingDurationSum="10.40" startedHalts="0.00" meanVehicleNumber="2.36" maxVehicleNumber="3" />
   <interval begin="30.00" end="45.00" id="W.05" sampledSeconds="15.15" nVehEntered="2" nVehLeft="3" nVehSeen="3" meanSpeed="3.07" meanTimeLoss="3.99" meanOccupancy="3.47" maxOccupancy="9.66" meanMaxJamLengthInVehicles="0.69" meanMaxJamLengthInMeters="3.47" maxJamLengthInVehicles="1" maxJamLengthInMeters="5.00" jamLengthInVehiclesSum="52" jamLengthInMetersSum="260.00" meanHaltingDuration="14.60" maxHaltingDuration="14.60" haltingDurationSum="14.60" meanIntervalHaltingDuration="10.40" maxIntervalHaltingDuration="10.40" intervalHaltingDurationSum="10.40" startedHalts="0.00" meanVehicleNumber="1.04" maxVehicleNumber="2" />
   <interval begin="30.00" end="45.00" id="E.01" sampledSeconds="29.66" nVehEntered="1" nVehLeft="3" nVehSeen="4" meanSpeed="9.06" meanTimeLoss="3.34" meanOccupancy="10.22" maxOccupancy="14.66" meanMaxJamLengthInVehicles="0.03" meanMaxJamLengthInMeters="0.13" maxJamLengthInVehicles="1" maxJamLengthInMeters="5.00" jamLengthInVehiclesSum="2" jamLengthInMetersSum="10.00" meanHaltingDuration="1.40" maxHaltingDuration="1.40" haltingDurationSum="1.40" meanIntervalHaltingDuration="1.40" maxIntervalHaltingDuration="1.40" intervalHaltingDurationSum="1.40" startedHalts="1.00" meanVehicleNumber="2.00" maxVehicleNumber="3" />
   <interval begin="30.00" end="45.00" id="E.02" sampledSeconds="12.99" nVehEntered="4" nVehLeft="4" nVehSeen="5" meanSpeed="8.59" meanTimeLoss="0.94" meanOccupancy="3.75" maxOccupancy="10.08" meanMaxJamLengthInVehicles="0.00" meanMaxJamLengthInMeters="0.00" maxJamLengthInVehicles="0" maxJamLengthInMeters="0.00" jamLengthInVehiclesSum="0" jamLengthInMetersSum="0.00" meanHaltingDuration="0.00" maxHaltingDuration="0.00" haltingDurationSum="0.00" meanIntervalHaltingDuration="0.00" maxIntervalHaltingDuration="0.00" intervalHaltingDurationSum="0.00" startedHalts="0.00" meanVehicleNumber="0.89" maxVehicleNumber="2" />
   <interval begin="30.00" end="45.00" id="E.03" sampledSeconds="6.77" nVehEntered="3" nVehLeft="2" nVehSeen="3" meanSpeed="9.27" meanTimeLoss="0.61" meanOccupancy="2.75" maxOccupancy="10.08" meanMaxJamLengthInVehicles="0.00" meanMaxJamLengthInMeters="0.00" maxJamLengthInVehicles="0" maxJamLengthInMeters="0.00" jamLengthInVehiclesSum="0" jamLengthInMetersSum="0.00" meanHaltingDuration="0.00" maxHaltingDuration="0.00" haltingDurationSum="0.00" meanIntervalHaltingDuration="0.00" maxIntervalHaltingDuration="0.00" intervalHaltingDurationSum="0.00" startedHalts="0.00" meanVehicleNumber="0.47" maxVehicleNumber="1" />
   <interval begin="30.00" end="45.00" id="E.04" sampledSeconds="6.77" nVehEntered="3" nVehLeft="2" nVehSeen="3" meanSpeed="9.27" meanTimeLoss="0.61" meanOccupancy="2.75" maxOccupancy="10.08" meanMaxJamLengthInVehicles="0.00" meanMaxJamLengthInMeters="0.00" maxJamLengthInVehicles="0" maxJamLengthInMeters="0.00" jamLengthInVehiclesSum="0" jamLengthInMetersSum="0.00" meanHaltingDuration="0.00" maxHaltingDuration="0.00" haltingDurationSum="0.00" meanIntervalHaltingDuration="0.00" maxIntervalHaltingDuration="0.00" intervalHaltingDurationSum="0.00" startedHalts="0.00" meanVehicleNumber="0.47" maxVehicleNumber="1" />
   <interval begin="30.00" end="45.00" id="E.05" sampledSeconds="49.18" nVehEntered="3" nVehLeft="2" nVehSeen="5" meanSpeed="5.38" meanTimeLoss="6.11" meanOccupancy="12.84" maxOccupancy="22.83" meanMaxJamLengthInVehicles="1.45" meanMaxJamLengthInMeters="8.36" maxJamLengthInVehicles="2" maxJamLengthInMeters="11.86" jamLengthInVehiclesSum="109" jamLengthInMetersSum="626.65" meanHaltingDuration="19.30" maxHaltingDuration="21.60" haltingDurationSum="38.60" meanIntervalHaltingDuration="10.90" maxIntervalHaltingDuration="11.40" intervalHaltingDurationSum="21.80" startedHalts="0.00" meanVehicleNumber="3.29" maxVehicleNumber="5" />
   <interval begin="30.00" end="45.00" id="E.06" sampledSeconds="20.57" nVehEntered="3" nVehLeft="3" nVehSeen="4" meanSpeed="3.78" meanTimeLoss="3.61" meanOccupancy="9.89" maxOccupancy="17.49" meanMaxJamLengthInVehicles="0.71" meanMaxJamLengthInMeters="9.89" maxJamLengthInVehicles="1" maxJamLengthInMeters="14.00" jamLengthInVehiclesSum="53" jamLengthInMetersSum="742.00" meanHaltingDuration="16.00" maxHaltingDuration="16.00" haltingDurationSum="16.00" meanIntervalHaltingDuration="10.60" maxIntervalHaltingDuration="10.60" intervalHaltingDurationSum="10.60" startedHalts="0.00" meanVehicleNumber="1.39" maxVehicleNumber="2" />