<?xml version="1.0" encoding="UTF-8"?>

<!-- generated on Mon Aug 10 18:48:36 2020 by Eclipse SUMO Version 1.5.0
<configuration xmlns:xsi="http://www.w3.org/2001/XMLSchema-instance" xsi:noNamespaceSchemaLocation="http://sumo.dlr.de/xsd/sumoConfiguration.xsd">

    <input>
        <net-file value="./project/ITLS.net.xml"/>
        <route-files value="./project/ITLS.rou.xml"/>
        <additional-files value="./project/ITLS.add.xml"/>
    </input>

    <output>
        <tripinfo-output value="./project/./output/output-tripinfos.xml"/>
    </output>

    <time>
        <begin value="0"/>
        <step-length value="0.2"/>
    </time>

    <processing>
        <lateral-resolution value="0.8"/>
    </processing>

    <report>
        <verbose value="true"/>
        <no-warnings value="true"/>
        <duration-log.disable value="false"/>
    </report>

    <traci_server>
        <remote-port value="61782"/>
    </traci_server>

    <random_number>
        <random value="true"/>
    </random_number>

    <gui_only>
        <gui-settings-file value="./project/view.settings.xml"/>
        <quit-on-end value="true"/>
        <start value="true"/>
        <tracker-interval value="0.2"/>
    </gui_only>

</configuration>
-->

<tripinfos xmlns:xsi="http://www.w3.org/2001/XMLSchema-instance" xsi:noNamespaceSchemaLocation="http://sumo.dlr.de/xsd/tripinfo_file.xsd">
    <tripinfo id="WE.MP.0.0" depart="7.20" departLane="CAWU_1" departPos="5.10" departPosLat="0.00" departSpeed="0.00" departDelay="7.20" arrival="42.40" arrivalLane="CAED_3" arrivalPos="54.32" arrivalPosLat="0.00" arrivalSpeed="12.32" duration="35.20" routeLength="518.55" waitingTime="0.00" waitingCount="0" stopTime="0.00" timeLoss="6.34" rerouteNo="0" devices="tripinfo_WE.MP.0.0" vType="MP" speedFactor="0.89" vaporized=""/>
    <tripinfo id="EW.SP.0.0" depart="8.60" departLane="CAEU_1" departPos="5.10" departPosLat="0.00" departSpeed="0.00" departDelay="8.60" arrival="46.00" arrivalLane="CAWD_1" arrivalPos="128.42" arrivalPosLat="0.00" arrivalSpeed="15.36" duration="37.40" routeLength="515.31" waitingTime="0.00" waitingCount="0" stopTime="0.00" timeLoss="3.77" rerouteNo="0" devices="tripinfo_EW.SP.0.0" vType="SP" speedFactor="0.69" vaporized=""/>
    <tripinfo id="WE.SP.0.0" depart="4.80" departLane="CAWU_1" departPos="5.10" departPosLat="0.00" departSpeed="0.00" departDelay="4.80" arrival="47.80" arrivalLane="CAED_1" arrivalPos="54.32" arrivalPosLat="0.00" arrivalSpeed="9.39" duration="43.00" routeLength="518.55" waitingTime="0.00" waitingCount="0" stopTime="0.00" timeLoss="5.17" rerouteNo="0" devices="tripinfo_WE.SP.0.0" vType="SP" speedFactor="0.68" vaporized=""/>
    <tripinfo id="EW.MP.0.0" depart="11.00" departLane="CAEU_1" departPos="5.10" departPosLat="0.00" departSpeed="0.00" departDelay="11.00" arrival="50.00" arrivalLane="CAWD_1" arrivalPos="128.42" arrivalPosLat="0.00" arrivalSpeed="15.09" duration="39.00" routeLength="515.31" waitingTime="0.00" waitingCount="0" stopTime="0.00" timeLoss="4.83" rerouteNo="0" devices="tripinfo_EW.MP.0.0" vType="MP" speedFactor="0.68" vaporized=""/>
    <tripinfo id="WE.LP.0.0" depart="11.00" departLane="CAWU_1" departPos="14.10" departPosLat="0.00" departSpeed="0.00" departDelay="11.00" arrival="52.80" arrivalLane="CAED_1" arrivalPos="54.32" arrivalPosLat="0.00" arrivalSpeed="9.97" duration="41.80" routeLength="509.55" waitingTime="0.00" waitingCount="0" stopTime="0.00" timeLoss="6.81" rerouteNo="0" devices="tripinfo_WE.LP.0.0" vType="LP" speedFactor="0.72" vaporized=""/>
    <tripinfo id="EW.LP.0.0" depart="14.80" departLane="CAEU_1" departPos="14.10" departPosLat="0.00" departSpeed="0.00" departDelay="14.80" arrival="55.80" arrivalLane="CAWD_1" arrivalPos="128.42" arrivalPosLat="0.00" arrivalSpeed="13.90" duration="41.00" routeLength="506.31" waitingTime="0.20" waitingCount="1" stopTime="0.00" timeLoss="4.52" rerouteNo="0" devices="tripinfo_EW.LP.0.0" vType="LP" speedFactor="0.63" vaporized=""/>
    <tripinfo id="WS.SP.0.0" depart="13.60" departLane="CAWU_1" departPos="5.10" departPosLat="0.00" departSpeed="0.00" departDelay="13.60" arrival="56.20" arrivalLane="JSSD_1" arrivalPos="3.75" arrivalPosLat="0.00" arrivalSpeed="9.92" duration="42.60" routeLength="400.21" waitingTime="0.00" waitingCount="0" stopTime="0.00" timeLoss="7.68" rerouteNo="0" devices="tripinfo_WS.SP.0.0" vType="SP" speedFactor="0.59" vaporized=""/>
    <tripinfo id="ES.SP.0.0" depart="0.00" departLane="CAEU_1" departPos="5.10" departPosLat="0.00" departSpeed="0.00" departDelay="0.00" arrival="58.80" arrivalLane="JSSD_1" arrivalPos="3.75" arrivalPosLat="-0.00" arrivalSpeed="13.58" duration="58.80" routeLength="348.84" waitingTime="19.80" waitingCount="2" stopTime="0.00" timeLoss="37.08" rerouteNo="0" devices="tripinfo_ES.SP.0.0" vType="SP" speedFactor="0.83" vaporized=""/>
    <tripinfo id="EN.SP.0.0" depart="17.60" departLane="CAEU_1" departPos="5.10" departPosLat="0.00" departSpeed="0.00" departDelay="17.60" arrival="60.00" arrivalLane="JSND_1" arrivalPos="191.93" arrivalPosLat="-0.00" arrivalSpeed="12.12" duration="42.40" routeLength="468.06" waitingTime="0.00" waitingCount="0" stopTime="0.00" timeLoss="6.37" rerouteNo="0" devices="tripinfo_EN.SP.0.0" vType="SP" speedFactor="0.73" vaporized=""/>
    <tripinfo id="ES.MP.0.0" depart="2.20" departLane="CAEU_1" departPos="5.10" departPosLat="0.00" departSpeed="0.00" departDelay="2.20" arrival="61.40" arrivalLane="JSSD_2" arrivalPos="3.75" arrivalPosLat="0.00" arrivalSpeed="8.26" duration="59.20" routeLength="340.94" waitingTime="13.80" waitingCount="1" stopTime="0.00" timeLoss="23.30" rerouteNo="0" devices="tripinfo_ES.MP.0.0" vType="MP" speedFactor="0.50" vaporized=""/>
    <tripinfo id="ES.LP.0.0" depart="6.00" departLane="CAEU_1" departPos="14.10" departPosLat="0.00" departSpeed="0.00" departDelay="6.00" arrival="63.40" arrivalLane="JSSD_2" arrivalPos="3.75" arrivalPosLat="0.00" arrivalSpeed="10.83" duration="57.40" routeLength="331.94" waitingTime="13.40" waitingCount="1" stopTime="0.00" timeLoss="32.69" rerouteNo="0" devices="tripinfo_ES.LP.0.0" vType="LP" speedFactor="0.71" vaporized=""/>
    <tripinfo id="ES.ST.0.0" depart="26.80" departLane="CAEU_1" departPos="6.60" departPosLat="0.00" departSpeed="0.00" departDelay="26.80" arrival="66.20" arrivalLane="JSSD_2" arrivalPos="3.75" arrivalPosLat="0.00" arrivalSpeed="12.06" duration="39.40" routeLength="339.44" waitingTime="0.00" waitingCount="0" stopTime="0.00" timeLoss="15.34" rerouteNo="0" devices="tripinfo_ES.ST.0.0" vType="ST" speedFactor="0.74" vaporized=""/>
    <tripinfo id="EN.MP.0.0" depart="20.20" departLane="CAEU_1" departPos="5.10" departPosLat="0.00" departSpeed="0.00" departDelay="20.20" arrival="66.80" arrivalLane="JSND_1" arrivalPos="191.93" arrivalPosLat="-0.00" arrivalSpeed="11.72" duration="46.60" routeLength="468.06" waitingTime="0.00" waitingCount="0" stopTime="0.00" timeLoss="9.39" rerouteNo="0" devices="tripinfo_EN.MP.0.0" vType="MP" speedFactor="0.70" vaporized=""/>
    <tripinfo id="WN.MP.0.0" depart="2.20" departLane="CAWU_1" departPos="5.10" departPosLat="0.00" departSpeed="0.00" departDelay="2.20" arrival="68.40" arrivalLane="JSND_2" arrivalPos="191.93" arrivalPosLat="0.00" arrivalSpeed="12.45" duration="66.20" routeLength="577.90" waitingTime="11.60" waitingCount="1" stopTime="0.00" timeLoss="25.13" rerouteNo="0" devices="tripinfo_WN.MP.0.0" vType="MP" speedFactor="0.75" vaporized=""/>
    <tripinfo id="EN.LP.0.0" depart="23.80" departLane="CAEU_1" departPos="14.10" departPosLat="0.00" departSpeed="0.00" departDelay="23.80" arrival="70.40" arrivalLane="JSND_1" arrivalPos="191.93" arrivalPosLat="0.00" arrivalSpeed="11.97" duration="46.60" routeLength="459.06" waitingTime="0.00" waitingCount="0" stopTime="0.00" timeLoss="10.71" rerouteNo="0" devices="tripinfo_EN.LP.0.0" vType="LP" speedFactor="0.72" vaporized=""/>
    <tripinfo id="ES.MT.0.0" depart="30.00" departLane="CAEU_1" departPos="7.20" departPosLat="0.00" departSpeed="0.00" departDelay="30.00" arrival="71.80" arrivalLane="JSSD_1" arrivalPos="3.75" arrivalPosLat="-0.00" arrivalSpeed="8.53" duration="41.80" routeLength="346.74" waitingTime="0.00" waitingCount="0" stopTime="0.00" timeLoss="6.65" rerouteNo="0" devices="tripinfo_ES.MT.0.0" vType="MT" speedFactor="0.51" vaporized=""/>
    <tripinfo id="ES.LT.0.0" depart="34.20" departLane="CAEU_1" departPos="16.60" departPosLat="0.00" departSpeed="0.00" departDelay="34.20" arrival="74.00" arrivalLane="JSSD_1" arrivalPos="3.75" arrivalPosLat="-0.00" arrivalSpeed="9.72" duration="39.80" routeLength="337.34" waitingTime="0.00" waitingCount="0" stopTime="0.00" timeLoss="13.22" rerouteNo="0" devices="tripinfo_ES.LT.0.0" vType="LT" speedFactor="0.66" vaporized=""/>
    <tripinfo id="WN.MT.0.0" depart="16.60" departLane="CAWU_1" departPos="7.20" departPosLat="0.00" departSpeed="0.00" departDelay="16.60" arrival="75.60" arrivalLane="JSND_2" arrivalPos="191.93" arrivalPosLat="0.00" arrivalSpeed="12.49" duration="59.00" routeLength="575.80" waitingTime="0.00" waitingCount="0" stopTime="0.00" timeLoss="18.23" rerouteNo="0" devices="tripinfo_WN.MT.0.0" vType="MT" speedFactor="0.75" vaporized=""/>
    <tripinfo id="WN.SP.0.0" depart="0.00" departLane="CAWU_1" departPos="5.10" departPosLat="0.00" departSpeed="0.00" departDelay="0.00" arrival="76.40" arrivalLane="JSND_1" arrivalPos="191.93" arrivalPosLat="0.00" arrivalSpeed="12.21" duration="76.40" routeLength="583.66" waitingTime="19.40" waitingCount="2" stopTime="0.00" timeLoss="34.20" rerouteNo="0" devices="tripinfo_WN.SP.0.0" vType="SP" speedFactor="0.73" vaporized=""/>
    <tripinfo id="WN.LT.0.0" depart="21.60" departLane="CAWU_1" departPos="16.60" departPosLat="0.00" departSpeed="0.00" departDelay="21.60" arrival="79.80" arrivalLane="JSND_2" arrivalPos="191.93" arrivalPosLat="-0.60" arrivalSpeed="11.96" duration="58.20" routeLength="566.40" waitingTime="0.00" waitingCount="0" stopTime="0.00" timeLoss="16.43" rerouteNo="0" devices="tripinfo_WN.LT.0.0" vType="LT" speedFactor="0.72" vaporized=""/>
    <tripinfo id="WN.SP.0.1" depart="37.40" departLane="CAWU_1" departPos="5.10" departPosLat="0.00" departSpeed="0.00" departDelay="26.69" arrival="87.60" arrivalLane="JSND_1" arrivalPos="191.93" arrivalPosLat="0.00" arrivalSpeed="11.51" duration="50.20" routeLength="583.66" waitingTime="0.00" waitingCount="0" stopTime="0.00" timeLoss="5.57" rerouteNo="0" devices="tripinfo_WN.SP.0.1" vType="SP" speedFactor="0.69" vaporized=""/>
    <tripinfo id="WN.SP.0.2" depart="45.00" departLane="CAWU_1" departPos="5.10" departPosLat="0.00" departSpeed="0.00" departDelay="23.57" arrival="92.20" arrivalLane="JSND_1" arrivalPos="191.93" arrivalPosLat="0.00" arrivalSpeed="12.41" duration="47.20" routeLength="583.66" waitingTime="0.00" waitingCount="0" stopTime="0.00" timeLoss="5.84" rerouteNo="0" devices="tripinfo_WN.SP.0.2" vType="SP" speedFactor="0.74" vaporized=""/>
    <tripinfo id="WN.SP.0.3" depart="50.00" departLane="CAWU_1" departPos="5.10" departPosLat="0.00" departSpeed="0.00" departDelay="17.86" arrival="99.00" arrivalLane="JSND_1" arrivalPos="191.93" arrivalPosLat="0.00" arrivalSpeed="12.02" duration="49.00" routeLength="583.66" waitingTime="0.00" waitingCount="0" stopTime="0.00" timeLoss="6.28" rerouteNo="0" devices="tripinfo_WN.SP.0.3" vType="SP" speedFactor="0.72" vaporized=""/>
    <tripinfo id="ES.SP.0.1" depart="62.80" departLane="CAEU_1" departPos="5.10" departPosLat="0.00" departSpeed="0.00" departDelay="51.96" arrival="105.00" arrivalLane="JSSD_1" arrivalPos="3.75" arrivalPosLat="-0.00" arrivalSpeed="14.28" duration="42.20" routeLength="348.84" waitingTime="7.20" waitingCount="1" stopTime="0.00" timeLoss="21.09" rerouteNo="0" devices="tripinfo_ES.SP.0.1" vType="SP" speedFactor="0.86" vaporized=""/>
    <tripinfo id="SW.SP.0.0" depart="0.00" departLane="JSSU_1" departPos="5.10" departPosLat="0.00" departSpeed="0.00" departDelay="0.00" arrival="106.00" arrivalLane="CAWD_4" arrivalPos="128.42" arrivalPosLat="0.00" arrivalSpeed="15.08" duration="106.00" routeLength="490.74" waitingTime="58.20" waitingCount="1" stopTime="0.00" timeLoss="68.47" rerouteNo="0" devices="tripinfo_SW.SP.0.0" vType="SP" speedFactor="0.68" vaporized=""/>
    <tripinfo id="EN.MT.0.0" depart="50.80" departLane="CAEU_1" departPos="7.20" departPosLat="0.00" departSpeed="0.00" departDelay="50.80" arrival="107.20" arrivalLane="JSND_1" arrivalPos="191.93" arrivalPosLat="-0.00" arrivalSpeed="10.82" duration="56.40" routeLength="465.96" waitingTime="0.00" waitingCount="0" stopTime="0.00" timeLoss="16.14" rerouteNo="0" devices="tripinfo_EN.MT.0.0" vType="MT" speedFactor="0.65" vaporized=""/>
    <tripinfo id="ES.SP.0.2" depart="70.60" departLane="CAEU_1" departPos="5.10" departPosLat="0.00" departSpeed="0.00" departDelay="48.91" arrival="108.00" arrivalLane="JSSD_2" arrivalPos="3.75" arrivalPosLat="0.00" arrivalSpeed="10.36" duration="37.40" routeLength="340.94" waitingTime="0.00" waitingCount="0" stopTime="0.00" timeLoss="8.75" rerouteNo="0" devices="tripinfo_ES.SP.0.2" vType="SP" speedFactor="0.62" vaporized=""/>
    <tripinfo id="SW.MP.0.0" depart="2.20" departLane="JSSU_1" departPos="5.10" departPosLat="0.00" departSpeed="0.00" departDelay="2.20" arrival="108.60" arrivalLane="CAWD_4" arrivalPos="128.42" arrivalPosLat="0.00" arrivalSpeed="15.81" duration="106.40" routeLength="490.74" waitingTime="56.40" waitingCount="1" stopTime="0.00" timeLoss="71.08" rerouteNo="0" devices="tripinfo_SW.MP.0.0" vType="MP" speedFactor="0.72" vaporized=""/>
    <tripinfo id="SN.MP.0.0" depart="11.20" departLane="JSSU_1" departPos="5.10" departPosLat="0.00" departSpeed="0.00" departDelay="11.20" arrival="109.60" arrivalLane="JSND_2" arrivalPos="191.93" arrivalPosLat="0.00" arrivalSpeed="12.14" duration="98.40" routeLength="490.97" waitingTime="46.40" waitingCount="2" stopTime="0.00" timeLoss="57.94" rerouteNo="0" devices="tripinfo_SN.MP.0.0" vType="MP" speedFactor="0.73" vaporized=""/>
    <tripinfo id="SE.SP.0.0" depart="13.80" departLane="JSSU_1" departPos="5.10" departPosLat="0.00" departSpeed="0.00" departDelay="13.80" arrival="110.20" arrivalLane="CAED_1" arrivalPos="54.32" arrivalPosLat="0.00" arrivalSpeed="10.14" duration="96.40" routeLength="388.94" waitingTime="46.00" waitingCount="2" stopTime="0.00" timeLoss="64.50" rerouteNo="0" devices="tripinfo_SE.SP.0.0" vType="SP" speedFactor="0.73" vaporized=""/>
    <tripinfo id="EN.LT.0.0" depart="56.20" departLane="CAEU_1" departPos="16.60" departPosLat="0.00" departSpeed="0.00" departDelay="56.20" arrival="111.20" arrivalLane="JSND_1" arrivalPos="191.93" arrivalPosLat="-0.00" arrivalSpeed="10.67" duration="55.00" routeLength="456.56" waitingTime="0.20" waitingCount="1" stopTime="0.00" timeLoss="15.12" rerouteNo="0" devices="tripinfo_EN.LT.0.0" vType="LT" speedFactor="0.64" vaporized=""/>
    <tripinfo id="SN.ST.0.0" depart="24.40" departLane="JSSU_1" departPos="6.60" departPosLat="0.00" departSpeed="0.00" departDelay="24.40" arrival="111.80" arrivalLane="JSND_2" arrivalPos="191.93" arrivalPosLat="0.00" arrivalSpeed="13.56" duration="87.40" routeLength="489.47" waitingTime="30.80" waitingCount="2" stopTime="0.00" timeLoss="52.33" rerouteNo="0" devices="tripinfo_SN.ST.0.0" vType="ST" speedFactor="0.84" vaporized=""/>
    <tripinfo id="SN.SP.0.0" depart="8.80" departLane="JSSU_1" departPos="5.10" departPosLat="0.00" departSpeed="0.00" departDelay="8.80" arrival="117.20" arrivalLane="JSND_1" arrivalPos="191.93" arrivalPosLat="0.00" arrivalSpeed="11.03" duration="108.40" routeLength="490.97" waitingTime="51.00" waitingCount="2" stopTime="0.00" timeLoss="63.71" rerouteNo="0" devices="tripinfo_SN.SP.0.0" vType="SP" speedFactor="0.66" vaporized=""/>
    <tripinfo id="SE.MP.0.0" depart="16.20" departLane="JSSU_1" departPos="5.10" departPosLat="0.00" departSpeed="0.00" departDelay="16.20" arrival="118.20" arrivalLane="CAED_1" arrivalPos="54.32" arrivalPosLat="0.00" arrivalSpeed="7.81" duration="102.00" routeLength="388.94" waitingTime="42.20" waitingCount="2" stopTime="0.00" timeLoss="60.51" rerouteNo="0" devices="tripinfo_SE.MP.0.0" vType="MP" speedFactor="0.56" vaporized=""/>
    <tripinfo id="WN.SP.0.5" depart="62.60" departLane="CAWU_1" departPos="5.10" departPosLat="0.00" departSpeed="0.00" departDelay="9.03" arrival="118.20" arrivalLane="JSND_2" arrivalPos="191.93" arrivalPosLat="0.00" arrivalSpeed="12.84" duration="55.60" routeLength="577.90" waitingTime="2.20" waitingCount="2" stopTime="0.00" timeLoss="15.63" rerouteNo="0" devices="tripinfo_WN.SP.0.5" vType="SP" speedFactor="0.77" vaporized=""/>
    <tripinfo id="ES.SP.0.3" depart="80.60" departLane="CAEU_1" departPos="5.10" departPosLat="0.00" departSpeed="0.00" departDelay="48.07" arrival="120.20" arrivalLane="JSSD_1" arrivalPos="3.75" arrivalPosLat="-0.00" arrivalSpeed="8.48" duration="39.60" routeLength="348.84" waitingTime="0.00" waitingCount="0" stopTime="0.00" timeLoss="4.02" rerouteNo="0" devices="tripinfo_ES.SP.0.3" vType="SP" speedFactor="0.51" vaporized=""/>
    <tripinfo id="WN.SP.0.6" depart="70.20" departLane="CAWU_1" departPos="5.10" departPosLat="0.00" departSpeed="0.00" departDelay="5.92" arrival="120.40" arrivalLane="JSND_2" arrivalPos="191.93" arrivalPosLat="0.00" arrivalSpeed="14.47" duration="50.20" routeLength="577.90" waitingTime="0.00" waitingCount="0" stopTime="0.00" timeLoss="15.80" rerouteNo="0" devices="tripinfo_WN.SP.0.6" vType="SP" speedFactor="0.89" vaporized=""/>
    <tripinfo id="EN.SP.0.1" depart="68.00" departLane="CAEU_1" departPos="5.10" departPosLat="0.00" departSpeed="0.00" departDelay="52.21" arrival="121.60" arrivalLane="JSND_1" arrivalPos="191.93" arrivalPosLat="0.00" arrivalSpeed="10.71" duration="53.60" routeLength="468.06" waitingTime="1.20" waitingCount="2" stopTime="0.00" timeLoss="12.73" rerouteNo="0" devices="tripinfo_EN.SP.0.1" vType="SP" speedFactor="0.64" vaporized=""/>
    <tripinfo id="EN.SP.0.2" depart="78.20" departLane="CAEU_1" departPos="5.10" departPosLat="0.00" departSpeed="0.00" departDelay="46.62" arrival="124.00" arrivalLane="JSND_1" arrivalPos="191.93" arrivalPosLat="0.00" arrivalSpeed="11.84" duration="45.80" routeLength="468.06" waitingTime="0.00" waitingCount="0" stopTime="0.00" timeLoss="9.41" rerouteNo="0" devices="tripinfo_EN.SP.0.2" vType="SP" speedFactor="0.72" vaporized=""/>
    <tripinfo id="WN.SP.0.7" depart="75.20" departLane="CAWU_1" departPos="5.10" departPosLat="0.00" departSpeed="0.00" departDelay="0.20" arrival="125.20" arrivalLane="JSND_2" arrivalPos="191.93" arrivalPosLat="0.00" arrivalSpeed="12.21" duration="50.00" routeLength="577.90" waitingTime="0.00" waitingCount="0" stopTime="0.00" timeLoss="8.11" rerouteNo="0" devices="tripinfo_WN.SP.0.7" vType="SP" speedFactor="0.73" vaporized=""/>
    <tripinfo id="WN.SP.0.4" depart="57.40" departLane="CAWU_1" departPos="5.10" departPosLat="0.00" departSpeed="0.00" departDelay="14.54" arrival="127.60" arrivalLane="JSND_1" arrivalPos="191.93" arrivalPosLat="0.00" arrivalSpeed="12.57" duration="70.20" routeLength="583.66" waitingTime="12.60" waitingCount="4" stopTime="0.00" timeLoss="29.28" rerouteNo="0" devices="tripinfo_WN.SP.0.4" vType="SP" speedFactor="0.76" vaporized=""/>
    <tripinfo id="SW.LP.0.0" depart="6.00" departLane="JSSU_1" departPos="14.10" departPosLat="0.00" departSpeed="0.00" departDelay="6.00" arrival="128.80" arrivalLane="CAWD_4" arrivalPos="128.42" arrivalPosLat="0.00" arrivalSpeed="18.15" duration="122.80" routeLength="481.74" waitingTime="71.40" waitingCount="2" stopTime="0.00" timeLoss="92.29" rerouteNo="0" devices="tripinfo_SW.LP.0.0" vType="LP" speedFactor="0.82" vaporized=""/>
    <tripinfo id="ES.SP.0.5" depart="95.60" departLane="CAEU_1" departPos="5.10" departPosLat="0.00" departSpeed="0.00" departDelay="41.39" arrival="129.80" arrivalLane="JSSD_2" arrivalPos="3.75" arrivalPosLat="0.00" arrivalSpeed="12.88" duration="34.20" routeLength="340.94" waitingTime="0.00" waitingCount="0" stopTime="0.00" timeLoss="11.13" rerouteNo="0" devices="tripinfo_ES.SP.0.5" vType="SP" speedFactor="0.77" vaporized=""/>
    <tripinfo id="SE.ST.0.0" depart="36.80" departLane="JSSU_1" departPos="6.60" departPosLat="0.00" departSpeed="0.00" departDelay="36.80" arrival="134.80" arrivalLane="CAED_1" arrivalPos="54.32" arrivalPosLat="0.00" arrivalSpeed="9.87" duration="98.00" routeLength="387.44" waitingTime="34.00" waitingCount="2" stopTime="0.00" timeLoss="65.19" rerouteNo="0" devices="tripinfo_SE.ST.0.0" vType="ST" speedFactor="0.71" vaporized=""/>
    <tripinfo id="SN.MT.0.0" depart="27.20" departLane="JSSU_1" departPos="7.20" departPosLat="0.00" departSpeed="0.00" departDelay="27.20" arrival="135.20" arrivalLane="JSND_1" arrivalPos="191.93" arrivalPosLat="0.00" arrivalSpeed="13.58" duration="108.00" routeLength="488.87" waitingTime="46.00" waitingCount="2" stopTime="0.00" timeLoss="71.93" rerouteNo="0" devices="tripinfo_SN.MT.0.0" vType="MT" speedFactor="0.82" vaporized=""/>
    <tripinfo id="ES.SP.0.4" depart="85.60" departLane="CAEU_1" departPos="5.10" departPosLat="0.00" departSpeed="0.00" departDelay="42.23" arrival="136.20" arrivalLane="JSSD_1" arrivalPos="3.75" arrivalPosLat="-0.00" arrivalSpeed="8.88" duration="50.60" routeLength="348.84" waitingTime="6.60" waitingCount="1" stopTime="0.00" timeLoss="16.72" rerouteNo="0" devices="tripinfo_ES.SP.0.4" vType="SP" speedFactor="0.53" vaporized=""/>
    <tripinfo id="SE.MT.0.0" depart="39.80" departLane="JSSU_1" departPos="7.20" departPosLat="0.00" departSpeed="0.00" departDelay="39.80" arrival="138.40" arrivalLane="CAED_1" arrivalPos="54.32" arrivalPosLat="0.00" arrivalSpeed="10.71" duration="98.60" routeLength="386.84" waitingTime="32.60" waitingCount="2" stopTime="0.00" timeLoss="68.55" rerouteNo="0" devices="tripinfo_SE.MT.0.0" vType="MT" speedFactor="0.78" vaporized=""/>
    <tripinfo id="SN.SP.0.1" depart="49.00" departLane="JSSU_1" departPos="5.10" departPosLat="0.00" departSpeed="0.00" departDelay="31.00" arrival="139.80" arrivalLane="JSND_2" arrivalPos="191.93" arrivalPosLat="0.00" arrivalSpeed="12.05" duration="90.80" routeLength="490.97" waitingTime="26.60" waitingCount="2" stopTime="0.00" timeLoss="49.90" rerouteNo="0" devices="tripinfo_SN.SP.0.1" vType="SP" speedFactor="0.72" vaporized=""/>
    <tripinfo id="SN.LT.0.0" depart="32.60" departLane="JSSU_1" departPos="16.60" departPosLat="0.00" departSpeed="0.00" departDelay="32.60" arrival="140.80" arrivalLane="JSND_1" arrivalPos="191.93" arrivalPosLat="0.00" arrivalSpeed="11.06" duration="108.20" routeLength="479.47" waitingTime="37.00" waitingCount="3" stopTime="0.00" timeLoss="64.71" rerouteNo="0" devices="tripinfo_SN.LT.0.0" vType="LT" speedFactor="0.66" vaporized=""/>
    <tripinfo id="EN.SP.0.3" depart="90.60" departLane="CAEU_1" departPos="5.10" departPosLat="0.00" departSpeed="0.00" departDelay="43.23" arrival="144.80" arrivalLane="JSND_1" arrivalPos="191.93" arrivalPosLat="0.00" arrivalSpeed="11.56" duration="54.20" routeLength="468.06" waitingTime="4.00" waitingCount="1" stopTime="0.00" timeLoss="16.49" rerouteNo="0" devices="tripinfo_EN.SP.0.3" vType="SP" speedFactor="0.69" vaporized=""/>
    <tripinfo id="WN.SP.0.9" depart="96.40" departLane="CAWU_1" departPos="5.10" departPosLat="0.00" departSpeed="0.00" departDelay="-0.03" arrival="145.60" arrivalLane="JSND_2" arrivalPos="191.93" arrivalPosLat="0.00" arrivalSpeed="11.65" duration="49.20" routeLength="577.90" waitingTime="0.00" waitingCount="0" stopTime="0.00" timeLoss="5.28" rerouteNo="0" devices="tripinfo_WN.SP.0.9" vType="SP" speedFactor="0.70" vaporized=""/>
    <tripinfo id="WE.SP.0.1" depart="34.60" departLane="CAWU_1" departPos="5.10" departPosLat="0.00" departSpeed="0.00" departDelay="27.51" arrival="149.00" arrivalLane="CAED_3" arrivalPos="54.32" arrivalPosLat="0.00" arrivalSpeed="10.37" duration="114.40" routeLength="518.55" waitingTime="64.60" waitingCount="2" stopTime="0.00" timeLoss="80.19" rerouteNo="0" devices="tripinfo_WE.SP.0.1" vType="SP" speedFactor="0.75" vaporized=""/>
    <tripinfo id="WE.SP.0.2" depart="40.00" departLane="CAWU_1" departPos="5.10" departPosLat="0.00" departSpeed="0.00" departDelay="25.83" arrival="150.00" arrivalLane="CAED_4" arrivalPos="54.32" arrivalPosLat="-0.60" arrivalSpeed="9.82" duration="110.00" routeLength="518.55" waitingTime="54.80" waitingCount="1" stopTime="0.00" timeLoss="73.80" rerouteNo="0" devices="tripinfo_WE.SP.0.2" vType="SP" speedFactor="0.71" vaporized=""/>
    <tripinfo id="EN.SP.0.4" depart="100.60" departLane="CAEU_1" departPos="5.10" departPosLat="0.00" departSpeed="0.00" departDelay="37.44" arrival="150.80" arrivalLane="JSND_1" arrivalPos="191.93" arrivalPosLat="0.00" arrivalSpeed="10.03" duration="50.20" routeLength="468.06" waitingTime="0.00" waitingCount="0" stopTime="0.00" timeLoss="6.58" rerouteNo="0" devices="tripinfo_EN.SP.0.4" vType="SP" speedFactor="0.60" vaporized=""/>
    <tripinfo id="SE.LT.0.0" depart="45.40" departLane="JSSU_1" departPos="16.60" departPosLat="0.00" departSpeed="0.00" departDelay="45.40" arrival="151.20" arrivalLane="CAED_1" arrivalPos="54.32" arrivalPosLat="0.00" arrivalSpeed="6.56" duration="105.80" routeLength="377.44" waitingTime="27.20" waitingCount="2" stopTime="0.00" timeLoss="57.92" rerouteNo="0" devices="tripinfo_SE.LT.0.0" vType="LT" speedFactor="0.47" vaporized=""/>
    <tripinfo id="NS.SP.0.0" depart="8.80" departLane="JSNU_1" departPos="5.10" departPosLat="0.00" departSpeed="0.00" departDelay="8.80" arrival="151.40" arrivalLane="JSSD_1" arrivalPos="3.75" arrivalPosLat="0.00" arrivalSpeed="13.12" duration="142.60" routeLength="423.91" waitingTime="95.80" waitingCount="1" stopTime="0.00" timeLoss="110.15" rerouteNo="0" devices="tripinfo_NS.SP.0.0" vType="SP" speedFactor="0.79" vaporized=""/>
    <tripinfo id="EW.ST.0.0" depart="38.00" departLane="CAEU_1" departPos="6.60" departPosLat="0.00" departSpeed="0.00" departDelay="38.00" arrival="151.60" arrivalLane="CAWD_1" arrivalPos="128.42" arrivalPosLat="0.00" arrivalSpeed="14.39" duration="113.60" routeLength="513.81" waitingTime="65.40" waitingCount="1" stopTime="0.00" timeLoss="77.86" rerouteNo="0" devices="tripinfo_EW.ST.0.0" vType="ST" speedFactor="0.65" vaporized=""/>
    <tripinfo id="WE.SP.0.3" depart="42.60" departLane="CAWU_1" departPos="5.10" departPosLat="0.00" departSpeed="0.00" departDelay="21.34" arrival="153.00" arrivalLane="CAED_4" arrivalPos="54.32" arrivalPosLat="-0.00" arrivalSpeed="9.62" duration="110.40" routeLength="518.55" waitingTime="50.80" waitingCount="1" stopTime="0.00" timeLoss="73.51" rerouteNo="0" devices="tripinfo_WE.SP.0.3" vType="SP" speedFactor="0.69" vaporized=""/>
    <tripinfo id="EW.SP.0.3" depart="73.00" departLane="CAEU_1" departPos="5.10" departPosLat="0.00" departSpeed="0.00" departDelay="50.87" arrival="153.40" arrivalLane="CAWD_3" arrivalPos="128.42" arrivalPosLat="0.00" arrivalSpeed="16.15" duration="80.40" routeLength="515.31" waitingTime="31.80" waitingCount="1" stopTime="0.00" timeLoss="48.48" rerouteNo="0" devices="tripinfo_EW.SP.0.3" vType="SP" speedFactor="0.73" vaporized=""/>
    <tripinfo id="SE.SP.0.1" depart="54.40" departLane="JSSU_1" departPos="5.10" departPosLat="0.00" departSpeed="0.00" departDelay="9.40" arrival="154.40" arrivalLane="CAED_1" arrivalPos="54.32" arrivalPosLat="0.00" arrivalSpeed="9.20" duration="100.00" routeLength="388.94" waitingTime="22.60" waitingCount="2" stopTime="0.00" timeLoss="65.16" rerouteNo="0" devices="tripinfo_SE.SP.0.1" vType="SP" speedFactor="0.67" vaporized=""/>
    <tripinfo id="NS.MP.0.0" depart="11.20" departLane="JSNU_1" departPos="5.10" departPosLat="0.00" departSpeed="0.00" departDelay="11.20" arrival="154.80" arrivalLane="JSSD_2" arrivalPos="3.75" arrivalPosLat="0.00" arrivalSpeed="10.07" duration="143.60" routeLength="423.91" waitingTime="89.40" waitingCount="2" stopTime="0.00" timeLoss="101.38" rerouteNo="0" devices="tripinfo_NS.MP.0.0" vType="MP" speedFactor="0.60" vaporized=""/>
    <tripinfo id="WE.SP.0.4" depart="47.60" departLane="CAWU_1" departPos="5.10" departPosLat="0.00" departSpeed="0.00" departDelay="19.25" arrival="156.60" arrivalLane="CAED_3" arrivalPos="54.32" arrivalPosLat="0.00" arrivalSpeed="7.83" duration="109.00" routeLength="518.55" waitingTime="44.80" waitingCount="1" stopTime="0.00" timeLoss="63.71" rerouteNo="0" devices="tripinfo_WE.SP.0.4" vType="SP" speedFactor="0.56" vaporized=""/>
    <tripinfo id="EW.MT.0.0" depart="41.20" departLane="CAEU_1" departPos="7.20" departPosLat="0.00" departSpeed="0.00" departDelay="41.20" arrival="157.00" arrivalLane="CAWD_1" arrivalPos="128.42" arrivalPosLat="0.00" arrivalSpeed="12.87" duration="115.80" routeLength="513.21" waitingTime="59.20" waitingCount="1" stopTime="0.00" timeLoss="75.95" rerouteNo="0" devices="tripinfo_EW.MT.0.0" vType="MT" speedFactor="0.58" vaporized=""/>
    <tripinfo id="NS.LP.0.0" depart="15.00" departLane="JSNU_1" departPos="14.10" departPosLat="0.00" departSpeed="0.00" departDelay="15.00" arrival="157.20" arrivalLane="JSSD_2" arrivalPos="3.75" arrivalPosLat="0.00" arrivalSpeed="11.13" duration="142.20" routeLength="414.91" waitingTime="88.20" waitingCount="2" stopTime="0.00" timeLoss="105.71" rerouteNo="0" devices="tripinfo_NS.LP.0.0" vType="LP" speedFactor="0.68" vaporized=""/>
    <tripinfo id="EW.LT.0.0" depart="46.60" departLane="CAEU_1" departPos="16.60" departPosLat="0.00" departSpeed="0.00" departDelay="46.60" arrival="157.80" arrivalLane="CAWD_3" arrivalPos="128.42" arrivalPosLat="-0.10" arrivalSpeed="12.96" duration="111.20" routeLength="503.81" waitingTime="51.80" waitingCount="2" stopTime="0.00" timeLoss="72.27" rerouteNo="0" devices="tripinfo_EW.LT.0.0" vType="LT" speedFactor="0.58" vaporized=""/>