<?xml version="1.0" encoding="UTF-8"?>

<!-- generated on 07/29/20 10:58:57 by Eclipse SUMO Version 1.6.0
<configuration xmlns:xsi="http://www.w3.org/2001/XMLSchema-instance" xsi:noNamespaceSchemaLocation="http://sumo.dlr.de/xsd/sumoConfiguration.xsd">

    <input>
        <net-file value="./project/ITLS.net.xml"/>
        <route-files value="./project/ITLS.rou.xml"/>
        <additional-files value="./project/ITLS.add.xml"/>
    </input>

    <output>
        <tripinfo-output value="./project/./output/output-tripinfos.xml"/>
    </output>

    <time>
        <begin value="0"/>
        <step-length value="0.2"/>
    </time>

    <processing>
        <lateral-resolution value="0.8"/>
    </processing>

    <report>
        <verbose value="true"/>
        <no-warnings value="true"/>
        <duration-log.disable value="false"/>
    </report>

    <traci_server>
        <remote-port value="60675"/>
    </traci_server>

    <random_number>
        <random value="true"/>
    </random_number>

    <gui_only>
        <gui-settings-file value="./project/view.settings.xml"/>
        <quit-on-end value="true"/>
        <start value="true"/>
        <tracker-interval value="0.2"/>
    </gui_only>

</configuration>
-->

<tripinfos xmlns:xsi="http://www.w3.org/2001/XMLSchema-instance" xsi:noNamespaceSchemaLocation="http://sumo.dlr.de/xsd/tripinfo_file.xsd">
    <tripinfo id="EW.SP.0.0" depart="8.60" departLane="CAEU_1" departPos="5.10" departPosLat="0.00" departSpeed="0.00" departDelay="8.60" arrival="43.20" arrivalLane="CAWD_1" arrivalPos="128.42" arrivalPosLat="0.00" arrivalSpeed="16.92" duration="34.60" routeLength="515.31" waitingTime="0.00" waitingCount="0" stopTime="0.00" timeLoss="4.06" rerouteNo="0" devices="tripinfo_EW.SP.0.0" vType="SP" speedFactor="0.76" vaporized=""/>
    <tripinfo id="EW.MP.0.0" depart="11.00" departLane="CAEU_1" departPos="5.10" departPosLat="0.00" departSpeed="0.00" departDelay="11.00" arrival="46.60" arrivalLane="CAWD_1" arrivalPos="128.42" arrivalPosLat="0.00" arrivalSpeed="17.00" duration="35.60" routeLength="515.31" waitingTime="0.20" waitingCount="1" stopTime="0.00" timeLoss="5.34" rerouteNo="0" devices="tripinfo_EW.MP.0.0" vType="MP" speedFactor="0.77" vaporized=""/>
    <tripinfo id="WS.SP.0.0" depart="13.60" departLane="CAWU_1" departPos="5.10" departPosLat="0.00" departSpeed="0.00" departDelay="13.60" arrival="46.80" arrivalLane="JSSD_1" arrivalPos="3.75" arrivalPosLat="0.00" arrivalSpeed="14.44" duration="33.20" routeLength="400.21" waitingTime="0.00" waitingCount="0" stopTime="0.00" timeLoss="9.17" rerouteNo="0" devices="tripinfo_WS.SP.0.0" vType="SP" speedFactor="0.87" vaporized=""/>
    <tripinfo id="WE.MP.0.0" depart="7.20" departLane="CAWU_1" departPos="5.10" departPosLat="0.00" departSpeed="0.00" departDelay="7.20" arrival="50.60" arrivalLane="CAED_3" arrivalPos="54.32" arrivalPosLat="0.00" arrivalSpeed="9.32" duration="43.40" routeLength="518.55" waitingTime="0.00" waitingCount="0" stopTime="0.00" timeLoss="5.37" rerouteNo="0" devices="tripinfo_WE.MP.0.0" vType="MP" speedFactor="0.67" vaporized=""/>
    <tripinfo id="EW.LP.0.0" depart="14.80" departLane="CAEU_1" departPos="14.10" departPosLat="0.00" departSpeed="0.00" departDelay="14.80" arrival="53.20" arrivalLane="CAWD_1" arrivalPos="128.42" arrivalPosLat="0.00" arrivalSpeed="15.04" duration="38.40" routeLength="506.31" waitingTime="0.00" waitingCount="0" stopTime="0.00" timeLoss="4.62" rerouteNo="0" devices="tripinfo_EW.LP.0.0" vType="LP" speedFactor="0.68" vaporized=""/>
    <tripinfo id="EN.SP.0.0" depart="17.60" departLane="CAEU_1" departPos="5.10" departPosLat="0.00" departSpeed="0.00" departDelay="17.60" arrival="55.80" arrivalLane="JSND_1" arrivalPos="191.93" arrivalPosLat="0.00" arrivalSpeed="14.87" duration="38.20" routeLength="468.06" waitingTime="0.00" waitingCount="0" stopTime="0.00" timeLoss="8.81" rerouteNo="0" devices="tripinfo_EN.SP.0.0" vType="SP" speedFactor="0.89" vaporized=""/>
    <tripinfo id="ES.SP.0.0" depart="0.00" departLane="CAEU_1" departPos="5.10" departPosLat="0.00" departSpeed="0.00" departDelay="0.00" arrival="56.00" arrivalLane="JSSD_1" arrivalPos="3.75" arrivalPosLat="-0.00" arrivalSpeed="12.78" duration="56.00" routeLength="348.84" waitingTime="18.80" waitingCount="1" stopTime="0.00" timeLoss="32.32" rerouteNo="0" devices="tripinfo_ES.SP.0.0" vType="SP" speedFactor="0.77" vaporized=""/>
    <tripinfo id="ES.LP.0.0" depart="6.00" departLane="CAEU_1" departPos="14.10" departPosLat="0.00" departSpeed="0.00" departDelay="6.00" arrival="56.60" arrivalLane="JSSD_2" arrivalPos="3.75" arrivalPosLat="0.00" arrivalSpeed="12.44" duration="50.60" routeLength="331.94" waitingTime="13.20" waitingCount="1" stopTime="0.00" timeLoss="27.14" rerouteNo="0" devices="tripinfo_ES.LP.0.0" vType="LP" speedFactor="0.75" vaporized=""/>
    <tripinfo id="ES.MP.0.0" depart="2.20" departLane="CAEU_1" departPos="5.10" departPosLat="0.00" departSpeed="0.00" departDelay="2.20" arrival="59.60" arrivalLane="JSSD_1" arrivalPos="3.75" arrivalPosLat="0.00" arrivalSpeed="11.41" duration="57.40" routeLength="348.84" waitingTime="13.60" waitingCount="1" stopTime="0.00" timeLoss="31.01" rerouteNo="0" devices="tripinfo_ES.MP.0.0" vType="MP" speedFactor="0.68" vaporized=""/>
    <tripinfo id="WE.SP.0.0" depart="4.80" departLane="CAWU_1" departPos="5.10" departPosLat="0.00" departSpeed="0.00" departDelay="4.80" arrival="61.20" arrivalLane="CAED_1" arrivalPos="54.32" arrivalPosLat="0.00" arrivalSpeed="6.81" duration="56.40" routeLength="518.55" waitingTime="0.00" waitingCount="0" stopTime="0.00" timeLoss="4.23" rerouteNo="0" devices="tripinfo_WE.SP.0.0" vType="SP" speedFactor="0.49" vaporized=""/>
    <tripinfo id="ES.ST.0.0" depart="26.80" departLane="CAEU_1" departPos="6.60" departPosLat="0.00" departSpeed="0.00" departDelay="26.80" arrival="62.40" arrivalLane="JSSD_1" arrivalPos="3.75" arrivalPosLat="0.00" arrivalSpeed="11.14" duration="35.60" routeLength="347.34" waitingTime="0.00" waitingCount="0" stopTime="0.00" timeLoss="8.83" rerouteNo="0" devices="tripinfo_ES.ST.0.0" vType="ST" speedFactor="0.67" vaporized=""/>
    <tripinfo id="EN.MP.0.0" depart="20.00" departLane="CAEU_1" departPos="5.10" departPosLat="0.00" departSpeed="0.00" departDelay="20.00" arrival="62.80" arrivalLane="JSND_1" arrivalPos="191.93" arrivalPosLat="0.00" arrivalSpeed="14.48" duration="42.80" routeLength="468.06" waitingTime="0.20" waitingCount="1" stopTime="0.00" timeLoss="12.63" rerouteNo="0" devices="tripinfo_EN.MP.0.0" vType="MP" speedFactor="0.87" vaporized=""/>
    <tripinfo id="WE.LP.0.0" depart="11.00" departLane="CAWU_1" departPos="14.10" departPosLat="0.00" departSpeed="0.00" departDelay="11.00" arrival="63.20" arrivalLane="CAED_1" arrivalPos="54.32" arrivalPosLat="0.00" arrivalSpeed="8.73" duration="52.20" routeLength="509.55" waitingTime="0.00" waitingCount="0" stopTime="0.00" timeLoss="15.07" rerouteNo="0" devices="tripinfo_WE.LP.0.0" vType="LP" speedFactor="0.68" vaporized=""/>
    <tripinfo id="ES.MT.0.0" depart="30.00" departLane="CAEU_1" departPos="7.20" departPosLat="0.00" departSpeed="0.00" departDelay="30.00" arrival="65.60" arrivalLane="JSSD_1" arrivalPos="3.75" arrivalPosLat="-0.00" arrivalSpeed="10.86" duration="35.60" routeLength="346.74" waitingTime="0.00" waitingCount="0" stopTime="0.00" timeLoss="8.36" rerouteNo="0" devices="tripinfo_ES.MT.0.0" vType="MT" speedFactor="0.66" vaporized=""/>
    <tripinfo id="WN.MP.0.0" depart="2.20" departLane="CAWU_1" departPos="5.10" departPosLat="0.00" departSpeed="0.00" departDelay="2.20" arrival="67.80" arrivalLane="JSND_2" arrivalPos="191.93" arrivalPosLat="0.00" arrivalSpeed="12.83" duration="65.60" routeLength="577.90" waitingTime="11.80" waitingCount="1" stopTime="0.00" timeLoss="25.64" rerouteNo="0" devices="tripinfo_WN.MP.0.0" vType="MP" speedFactor="0.77" vaporized=""/>
    <tripinfo id="WN.SP.0.0" depart="0.00" departLane="CAWU_1" departPos="5.10" departPosLat="0.00" departSpeed="0.00" departDelay="0.00" arrival="70.80" arrivalLane="JSND_1" arrivalPos="191.93" arrivalPosLat="0.00" arrivalSpeed="12.51" duration="70.80" routeLength="583.66" waitingTime="15.20" waitingCount="1" stopTime="0.00" timeLoss="29.73" rerouteNo="0" devices="tripinfo_WN.SP.0.0" vType="SP" speedFactor="0.75" vaporized=""/>
    <tripinfo id="EN.LP.0.0" depart="23.80" departLane="CAEU_1" departPos="14.10" departPosLat="0.00" departSpeed="0.00" departDelay="23.80" arrival="75.80" arrivalLane="JSND_1" arrivalPos="191.93" arrivalPosLat="0.00" arrivalSpeed="12.32" duration="52.00" routeLength="459.06" waitingTime="2.00" waitingCount="1" stopTime="0.00" timeLoss="17.11" rerouteNo="0" devices="tripinfo_EN.LP.0.0" vType="LP" speedFactor="0.74" vaporized=""/>
    <tripinfo id="ES.LT.0.0" depart="34.40" departLane="CAEU_1" departPos="16.60" departPosLat="0.00" departSpeed="0.00" departDelay="34.40" arrival="77.80" arrivalLane="JSSD_1" arrivalPos="3.75" arrivalPosLat="-0.00" arrivalSpeed="8.23" duration="43.40" routeLength="337.34" waitingTime="0.20" waitingCount="1" stopTime="0.00" timeLoss="7.87" rerouteNo="0" devices="tripinfo_ES.LT.0.0" vType="LT" speedFactor="0.49" vaporized=""/>
    <tripinfo id="WN.LT.0.0" depart="21.40" departLane="CAWU_1" departPos="16.60" departPosLat="0.00" departSpeed="0.00" departDelay="21.40" arrival="80.40" arrivalLane="JSND_1" arrivalPos="191.93" arrivalPosLat="-0.00" arrivalSpeed="10.05" duration="59.00" routeLength="566.40" waitingTime="0.00" waitingCount="0" stopTime="0.00" timeLoss="9.10" rerouteNo="0" devices="tripinfo_WN.LT.0.0" vType="LT" speedFactor="0.60" vaporized=""/>
    <tripinfo id="WN.MT.0.0" depart="16.60" departLane="CAWU_1" departPos="7.20" departPosLat="0.00" departSpeed="0.00" departDelay="16.60" arrival="83.40" arrivalLane="JSND_1" arrivalPos="191.93" arrivalPosLat="-0.00" arrivalSpeed="12.02" duration="66.80" routeLength="581.56" waitingTime="2.40" waitingCount="1" stopTime="0.00" timeLoss="27.76" rerouteNo="0" devices="tripinfo_WN.MT.0.0" vType="MT" speedFactor="0.79" vaporized=""/>
    <tripinfo id="WN.SP.0.1" depart="37.40" departLane="CAWU_1" departPos="5.10" departPosLat="0.00" departSpeed="0.00" departDelay="26.69" arrival="85.60" arrivalLane="JSND_1" arrivalPos="191.93" arrivalPosLat="0.00" arrivalSpeed="12.72" duration="48.20" routeLength="583.66" waitingTime="0.00" waitingCount="0" stopTime="0.00" timeLoss="8.97" rerouteNo="0" devices="tripinfo_WN.SP.0.1" vType="SP" speedFactor="0.79" vaporized=""/>
    <tripinfo id="WN.SP.0.2" depart="45.00" departLane="CAWU_1" departPos="5.10" departPosLat="0.00" departSpeed="0.00" departDelay="23.57" arrival="93.20" arrivalLane="JSND_1" arrivalPos="191.93" arrivalPosLat="0.00" arrivalSpeed="12.07" duration="48.20" routeLength="583.66" waitingTime="0.00" waitingCount="0" stopTime="0.00" timeLoss="5.49" rerouteNo="0" devices="tripinfo_WN.SP.0.2" vType="SP" speedFactor="0.72" vaporized=""/>
    <tripinfo id="EN.MT.0.0" depart="51.40" departLane="CAEU_1" departPos="7.20" departPosLat="0.00" departSpeed="0.00" departDelay="51.40" arrival="99.60" arrivalLane="JSND_1" arrivalPos="191.93" arrivalPosLat="-0.00" arrivalSpeed="12.42" duration="48.20" routeLength="465.96" waitingTime="0.20" waitingCount="1" stopTime="0.00" timeLoss="13.08" rerouteNo="0" devices="tripinfo_EN.MT.0.0" vType="MT" speedFactor="0.75" vaporized=""/>
    <tripinfo id="NE.SP.0.0" depart="0.00" departLane="JSNU_1" departPos="5.10" departPosLat="0.00" departSpeed="0.00" departDelay="0.00" arrival="101.00" arrivalLane="CAED_4" arrivalPos="54.32" arrivalPosLat="0.00" arrivalSpeed="12.39" duration="101.00" routeLength="497.48" waitingTime="54.60" waitingCount="1" stopTime="0.00" timeLoss="68.14" rerouteNo="0" devices="tripinfo_NE.SP.0.0" vType="SP" speedFactor="0.89" vaporized=""/>
    <tripinfo id="SW.SP.0.0" depart="0.00" departLane="JSSU_1" departPos="5.10" departPosLat="0.00" departSpeed="0.00" departDelay="0.00" arrival="102.80" arrivalLane="CAWD_4" arrivalPos="128.42" arrivalPosLat="0.00" arrivalSpeed="18.03" duration="102.80" routeLength="490.74" waitingTime="59.80" waitingCount="1" stopTime="0.00" timeLoss="71.41" rerouteNo="0" devices="tripinfo_SW.SP.0.0" vType="SP" speedFactor="0.81" vaporized=""/>
    <tripinfo id="EN.LT.0.0" depart="57.00" departLane="CAEU_1" departPos="16.60" departPosLat="0.00" departSpeed="0.00" departDelay="57.00" arrival="103.80" arrivalLane="JSND_1" arrivalPos="191.93" arrivalPosLat="-0.00" arrivalSpeed="13.82" duration="46.80" routeLength="456.56" waitingTime="0.20" waitingCount="1" stopTime="0.00" timeLoss="16.10" rerouteNo="0" devices="tripinfo_EN.LT.0.0" vType="LT" speedFactor="0.84" vaporized=""/>
    <tripinfo id="SW.MP.0.0" depart="2.20" departLane="JSSU_1" departPos="5.10" departPosLat="0.00" departSpeed="0.00" departDelay="2.20" arrival="107.00" arrivalLane="CAWD_4" arrivalPos="128.42" arrivalPosLat="0.00" arrivalSpeed="16.39" duration="104.80" routeLength="490.74" waitingTime="57.40" waitingCount="1" stopTime="0.00" timeLoss="70.24" rerouteNo="0" devices="tripinfo_SW.MP.0.0" vType="MP" speedFactor="0.74" vaporized=""/>
    <tripinfo id="NE.MP.0.0" depart="2.20" departLane="JSNU_1" departPos="5.10" departPosLat="0.00" departSpeed="0.00" departDelay="2.20" arrival="107.20" arrivalLane="CAED_4" arrivalPos="54.32" arrivalPosLat="0.00" arrivalSpeed="9.73" duration="105.00" routeLength="497.48" waitingTime="49.80" waitingCount="1" stopTime="0.00" timeLoss="63.14" rerouteNo="0" devices="tripinfo_NE.MP.0.0" vType="MP" speedFactor="0.70" vaporized=""/>
    <tripinfo id="ES.SP.0.1" depart="63.40" departLane="CAEU_1" departPos="5.10" departPosLat="0.00" departSpeed="0.00" departDelay="52.56" arrival="109.80" arrivalLane="JSSD_1" arrivalPos="3.75" arrivalPosLat="-0.00" arrivalSpeed="14.68" duration="46.40" routeLength="348.84" waitingTime="11.60" waitingCount="1" stopTime="0.00" timeLoss="25.81" rerouteNo="0" devices="tripinfo_ES.SP.0.1" vType="SP" speedFactor="0.88" vaporized=""/>
    <tripinfo id="SW.LP.0.0" depart="6.00" departLane="JSSU_1" departPos="14.10" departPosLat="0.00" departSpeed="0.00" departDelay="6.00" arrival="110.00" arrivalLane="CAWD_4" arrivalPos="128.42" arrivalPosLat="0.00" arrivalSpeed="16.27" duration="104.00" routeLength="481.74" waitingTime="55.00" waitingCount="1" stopTime="0.00" timeLoss="70.27" rerouteNo="0" devices="tripinfo_SW.LP.0.0" vType="LP" speedFactor="0.74" vaporized=""/>
    <tripinfo id="NE.LP.0.0" depart="6.00" departLane="JSNU_1" departPos="14.10" departPosLat="0.00" departSpeed="0.00" departDelay="6.00" arrival="112.40" arrivalLane="CAED_4" arrivalPos="54.32" arrivalPosLat="0.00" arrivalSpeed="8.54" duration="106.40" routeLength="488.48" waitingTime="45.40" waitingCount="1" stopTime="0.00" timeLoss="59.66" rerouteNo="0" devices="tripinfo_NE.LP.0.0" vType="LP" speedFactor="0.62" vaporized=""/>
    <tripinfo id="ES.SP.0.2" depart="71.20" departLane="CAEU_1" departPos="5.10" departPosLat="0.00" departSpeed="0.00" departDelay="49.51" arrival="112.40" arrivalLane="JSSD_2" arrivalPos="3.75" arrivalPosLat="0.00" arrivalSpeed="10.80" duration="41.20" routeLength="340.94" waitingTime="0.00" waitingCount="0" stopTime="0.00" timeLoss="13.75" rerouteNo="0" devices="tripinfo_ES.SP.0.2" vType="SP" speedFactor="0.65" vaporized=""/>
    <tripinfo id="SW.LT.0.0" depart="20.40" departLane="JSSU_1" departPos="16.60" departPosLat="0.00" departSpeed="0.00" departDelay="20.40" arrival="113.20" arrivalLane="CAWD_4" arrivalPos="128.42" arrivalPosLat="0.00" arrivalSpeed="17.94" duration="92.80" routeLength="479.24" waitingTime="41.40" waitingCount="1" stopTime="0.00" timeLoss="63.78" rerouteNo="0" devices="tripinfo_SW.LT.0.0" vType="LT" speedFactor="0.86" vaporized=""/>
    <tripinfo id="NE.ST.0.0" depart="24.80" departLane="JSNU_1" departPos="6.60" departPosLat="0.00" departSpeed="0.00" departDelay="24.80" arrival="115.40" arrivalLane="CAED_4" arrivalPos="54.32" arrivalPosLat="0.00" arrivalSpeed="9.85" duration="90.60" routeLength="495.98" waitingTime="30.20" waitingCount="1" stopTime="0.00" timeLoss="49.77" rerouteNo="0" devices="tripinfo_NE.ST.0.0" vType="ST" speedFactor="0.72" vaporized=""/>
    <tripinfo id="ES.SP.0.3" depart="81.40" departLane="CAEU_1" departPos="5.10" departPosLat="0.00" departSpeed="0.00" departDelay="48.87" arrival="117.00" arrivalLane="JSSD_1" arrivalPos="3.75" arrivalPosLat="-0.00" arrivalSpeed="12.48" duration="35.60" routeLength="348.84" waitingTime="0.20" waitingCount="1" stopTime="0.00" timeLoss="11.36" rerouteNo="0" devices="tripinfo_ES.SP.0.3" vType="SP" speedFactor="0.75" vaporized=""/>
    <tripinfo id="EN.SP.0.1" depart="68.80" departLane="CAEU_1" departPos="5.10" departPosLat="0.00" departSpeed="0.00" departDelay="53.01" arrival="117.60" arrivalLane="JSND_1" arrivalPos="191.93" arrivalPosLat="-0.00" arrivalSpeed="10.25" duration="48.80" routeLength="468.06" waitingTime="0.00" waitingCount="0" stopTime="0.00" timeLoss="6.23" rerouteNo="0" devices="tripinfo_EN.SP.0.1" vType="SP" speedFactor="0.61" vaporized=""/>
    <tripinfo id="ES.SP.0.4" depart="87.60" departLane="CAEU_1" departPos="5.10" departPosLat="0.00" departSpeed="0.00" departDelay="44.23" arrival="120.40" arrivalLane="JSSD_1" arrivalPos="3.75" arrivalPosLat="0.00" arrivalSpeed="11.41" duration="32.80" routeLength="348.84" waitingTime="0.00" waitingCount="0" stopTime="0.00" timeLoss="6.45" rerouteNo="0" devices="tripinfo_ES.SP.0.4" vType="SP" speedFactor="0.69" vaporized=""/>
    <tripinfo id="EN.SP.0.2" depart="79.00" departLane="CAEU_1" departPos="5.10" departPosLat="0.00" departSpeed="0.00" departDelay="47.42" arrival="122.60" arrivalLane="JSND_1" arrivalPos="191.93" arrivalPosLat="-0.00" arrivalSpeed="12.11" duration="43.60" routeLength="468.06" waitingTime="0.00" waitingCount="0" stopTime="0.00" timeLoss="7.60" rerouteNo="0" devices="tripinfo_EN.SP.0.2" vType="SP" speedFactor="0.73" vaporized=""/>
    <tripinfo id="WN.SP.0.4" depart="57.60" departLane="CAWU_1" departPos="5.10" departPosLat="0.00" departSpeed="0.00" departDelay="14.74" arrival="128.80" arrivalLane="JSND_1" arrivalPos="191.93" arrivalPosLat="-0.00" arrivalSpeed="10.35" duration="71.20" routeLength="577.90" waitingTime="10.00" waitingCount="2" stopTime="0.00" timeLoss="21.77" rerouteNo="0" devices="tripinfo_WN.SP.0.4" vType="SP" speedFactor="0.62" vaporized=""/>
    <tripinfo id="ES.SP.0.5" depart="97.40" departLane="CAEU_1" departPos="5.10" departPosLat="0.00" departSpeed="0.00" departDelay="43.19" arrival="129.60" arrivalLane="JSSD_1" arrivalPos="3.75" arrivalPosLat="-0.00" arrivalSpeed="13.22" duration="32.20" routeLength="348.84" waitingTime="0.20" waitingCount="1" stopTime="0.00" timeLoss="9.41" rerouteNo="0" devices="tripinfo_ES.SP.0.5" vType="SP" speedFactor="0.79" vaporized=""/>
    <tripinfo id="WN.SP.0.5" depart="62.80" departLane="CAWU_1" departPos="5.10" departPosLat="0.00" departSpeed="0.00" departDelay="9.23" arrival="131.40" arrivalLane="JSND_2" arrivalPos="191.93" arrivalPosLat="0.00" arrivalSpeed="12.76" duration="68.60" routeLength="583.66" waitingTime="8.00" waitingCount="1" stopTime="0.00" timeLoss="28.27" rerouteNo="0" devices="tripinfo_WN.SP.0.5" vType="SP" speedFactor="0.77" vaporized=""/>
    <tripinfo id="WN.SP.0.6" depart="70.20" departLane="CAWU_1" departPos="5.10" departPosLat="0.00" departSpeed="0.00" departDelay="5.92" arrival="131.80" arrivalLane="JSND_1" arrivalPos="191.93" arrivalPosLat="-0.00" arrivalSpeed="10.22" duration="61.60" routeLength="577.90" waitingTime="0.00" waitingCount="0" stopTime="0.00" timeLoss="11.74" rerouteNo="0" devices="tripinfo_WN.SP.0.6" vType="SP" speedFactor="0.61" vaporized=""/>
    <tripinfo id="EW.SP.0.3" depart="74.00" departLane="CAEU_1" departPos="5.10" departPosLat="0.00" departSpeed="0.00" departDelay="51.87" arrival="133.20" arrivalLane="CAWD_3" arrivalPos="128.42" arrivalPosLat="-0.00" arrivalSpeed="16.48" duration="59.20" routeLength="515.31" waitingTime="11.20" waitingCount="1" stopTime="0.00" timeLoss="27.81" rerouteNo="0" devices="tripinfo_EW.SP.0.3" vType="SP" speedFactor="0.74" vaporized=""/>
    <tripinfo id="EW.LT.0.0" depart="47.40" departLane="CAEU_1" departPos="16.60" departPosLat="0.00" departSpeed="0.00" departDelay="47.40" arrival="134.40" arrivalLane="CAWD_4" arrivalPos="128.42" arrivalPosLat="0.00" arrivalSpeed="15.87" duration="87.00" routeLength="503.81" waitingTime="31.80" waitingCount="2" stopTime="0.00" timeLoss="55.35" rerouteNo="0" devices="tripinfo_EW.LT.0.0" vType="LT" speedFactor="0.72" vaporized=""/>
    <tripinfo id="WN.SP.0.3" depart="50.00" departLane="CAWU_1" departPos="5.10" departPosLat="0.00" departSpeed="0.00" departDelay="17.86" arrival="135.40" arrivalLane="JSND_1" arrivalPos="191.93" arrivalPosLat="0.00" arrivalSpeed="9.18" duration="85.40" routeLength="583.66" waitingTime="17.00" waitingCount="2" stopTime="0.00" timeLoss="29.39" rerouteNo="0" devices="tripinfo_WN.SP.0.3" vType="SP" speedFactor="0.55" vaporized=""/>
    <tripinfo id="EW.ST.0.0" depart="38.80" departLane="CAEU_1" departPos="6.60" departPosLat="0.00" departSpeed="0.00" departDelay="38.80" arrival="136.40" arrivalLane="CAWD_1" arrivalPos="128.42" arrivalPosLat="0.00" arrivalSpeed="11.70" duration="97.60" routeLength="513.81" waitingTime="42.80" waitingCount="1" stopTime="0.00" timeLoss="53.67" rerouteNo="0" devices="tripinfo_EW.ST.0.0" vType="ST" speedFactor="0.53" vaporized=""/>
    <tripinfo id="ES.SP.0.6" depart="107.60" departLane="CAEU_1" departPos="5.10" departPosLat="0.00" departSpeed="0.00" departDelay="42.54" arrival="137.20" arrivalLane="JSSD_1" arrivalPos="3.75" arrivalPosLat="-0.00" arrivalSpeed="12.43" duration="29.60" routeLength="348.84" waitingTime="0.00" waitingCount="0" stopTime="0.00" timeLoss="5.33" rerouteNo="0" devices="tripinfo_ES.SP.0.6" vType="SP" speedFactor="0.75" vaporized=""/>
    <tripinfo id="EW.SP.0.1" depart="60.60" departLane="CAEU_1" departPos="5.10" departPosLat="0.00" departSpeed="0.00" departDelay="53.22" arrival="138.20" arrivalLane="CAWD_1" arrivalPos="128.42" arrivalPosLat="0.00" arrivalSpeed="14.94" duration="77.60" routeLength="515.31" waitingTime="24.60" waitingCount="2" stopTime="0.00" timeLoss="49.20" rerouteNo="0" devices="tripinfo_EW.SP.0.1" vType="SP" speedFactor="0.82" vaporized=""/>
    <tripinfo id="EW.SP.0.4" depart="76.40" departLane="CAEU_1" departPos="5.10" departPosLat="0.00" departSpeed="0.00" departDelay="46.89" arrival="138.80" arrivalLane="CAWD_4" arrivalPos="128.42" arrivalPosLat="0.00" arrivalSpeed="14.60" duration="62.40" routeLength="515.31" waitingTime="9.20" waitingCount="1" stopTime="0.00" timeLoss="27.05" rerouteNo="0" devices="tripinfo_EW.SP.0.4" vType="SP" speedFactor="0.66" vaporized=""/>
    <tripinfo id="EW.MT.0.0" depart="42.00" departLane="CAEU_1" departPos="7.20" departPosLat="0.00" departSpeed="0.00" departDelay="42.00" arrival="139.20" arrivalLane="CAWD_2" arrivalPos="128.42" arrivalPosLat="0.00" arrivalSpeed="11.66" duration="97.20" routeLength="513.21" waitingTime="37.40" waitingCount="1" stopTime="0.00" timeLoss="53.06" rerouteNo="0" devices="tripinfo_EW.MT.0.0" vType="MT" speedFactor="0.52" vaporized=""/>
    <tripinfo id="EW.SP.0.2" depart="66.20" departLane="CAEU_1" departPos="5.10" departPosLat="0.00" departSpeed="0.00" departDelay="51.45" arrival="140.20" arrivalLane="CAWD_1" arrivalPos="128.42" arrivalPosLat="0.00" arrivalSpeed="14.02" duration="74.00" routeLength="515.31" waitingTime="19.80" waitingCount="1" stopTime="0.00" timeLoss="38.73" rerouteNo="0" devices="tripinfo_EW.SP.0.2" vType="SP" speedFactor="0.66" vaporized=""/>
    <tripinfo id="EW.SP.0.5" depart="85.00" departLane="CAEU_1" departPos="5.10" departPosLat="0.00" departSpeed="0.00" departDelay="48.12" arrival="141.80" arrivalLane="CAWD_1" arrivalPos="128.42" arrivalPosLat="0.00" arrivalSpeed="14.90" duration="56.80" routeLength="515.31" waitingTime="2.60" waitingCount="1" stopTime="0.00" timeLoss="26.03" rerouteNo="0" devices="tripinfo_EW.SP.0.5" vType="SP" speedFactor="0.75" vaporized=""/>
    <tripinfo id="EW.SP.0.6" depart="90.00" departLane="CAEU_1" departPos="5.10" departPosLat="0.00" departSpeed="0.00" departDelay="45.74" arrival="143.20" arrivalLane="CAWD_2" arrivalPos="128.42" arrivalPosLat="0.00" arrivalSpeed="12.80" duration="53.20" routeLength="515.31" waitingTime="0.00" waitingCount="0" stopTime="0.00" timeLoss="12.86" rerouteNo="0" devices="tripinfo_EW.SP.0.6" vType="SP" speedFactor="0.58" vaporized=""/>
    <tripinfo id="EW.SP.0.7" depart="95.00" departLane="CAEU_1" departPos="5.10" departPosLat="0.00" departSpeed="0.00" departDelay="43.36" arrival="143.60" arrivalLane="CAWD_1" arrivalPos="128.42" arrivalPosLat="0.00" arrivalSpeed="15.79" duration="48.60" routeLength="515.31" waitingTime="0.00" waitingCount="0" stopTime="0.00" timeLoss="20.11" rerouteNo="0" devices="tripinfo_EW.SP.0.7" vType="SP" speedFactor="0.82" vaporized=""/>
    <tripinfo id="EN.SP.0.3" depart="92.60" departLane="CAEU_1" departPos="5.10" departPosLat="0.00" departSpeed="0.00" departDelay="45.23" arrival="144.40" arrivalLane="JSND_1" arrivalPos="191.93" arrivalPosLat="0.00" arrivalSpeed="9.54" duration="51.80" routeLength="468.06" waitingTime="0.00" waitingCount="0" stopTime="0.00" timeLoss="5.95" rerouteNo="0" devices="tripinfo_EN.SP.0.3" vType="SP" speedFactor="0.57" vaporized=""/>
    <tripinfo id="WN.SP.0.8" depart="87.40" departLane="CAWU_1" departPos="5.10" departPosLat="0.00" departSpeed="0.00" departDelay="1.69" arrival="151.20" arrivalLane="JSND_1" arrivalPos="191.93" arrivalPosLat="0.00" arrivalSpeed="11.48" duration="63.80" routeLength="583.66" waitingTime="6.80" waitingCount="1" stopTime="0.00" timeLoss="19.06" rerouteNo="0" devices="tripinfo_WN.SP.0.8" vType="SP" speedFactor="0.69" vaporized=""/>
    <tripinfo id="ES.SP.0.7" depart="115.20" departLane="CAEU_1" departPos="5.10" departPosLat="0.00" departSpeed="0.00" departDelay="39.30" arrival="151.80" arrivalLane="JSSD_1" arrivalPos="3.75" arrivalPosLat="-0.00" arrivalSpeed="9.38" duration="36.60" routeLength="348.84" waitingTime="0.00" waitingCount="0" stopTime="0.00" timeLoss="4.59" rerouteNo="0" devices="tripinfo_ES.SP.0.7" vType="SP" speedFactor="0.56" vaporized=""/>
    <tripinfo id="WN.SP.0.7" depart="75.20" departLane="CAWU_1" departPos="5.10" departPosLat="0.00" departSpeed="0.00" departDelay="0.20" arrival="152.20" arrivalLane="JSND_2" arrivalPos="191.93" arrivalPosLat="-0.60" arrivalSpeed="10.83" duration="77.00" routeLength="577.90" waitingTime="17.00" waitingCount="1" stopTime="0.00" timeLoss="29.77" rerouteNo="0" devices="tripinfo_WN.SP.0.7" vType="SP" speedFactor="0.65" vaporized=""/>
    <tripinfo id="WN.SP.0.9" depart="96.60" departLane="CAWU_1" departPos="5.10" departPosLat="0.00" departSpeed="0.00" departDelay="0.17" arrival="157.20" arrivalLane="JSND_2" arrivalPos="191.93" arrivalPosLat="0.00" arrivalSpeed="12.19" duration="60.60" routeLength="583.66" waitingTime="0.40" waitingCount="1" stopTime="0.00" timeLoss="18.42" rerouteNo="0" devices="tripinfo_WN.SP.0.9" vType="SP" speedFactor="0.73" vaporized=""/>
    <tripinfo id="EW.MP.0.1" depart="105.00" departLane="CAEU_1" departPos="5.10" departPosLat="0.00" departSpeed="0.00" departDelay="40.71" arrival="159.60" arrivalLane="CAWD_1" arrivalPos="128.42" arrivalPosLat="0.00" arrivalSpeed="16.06" duration="54.60" routeLength="515.31" waitingTime="9.60" waitingCount="1" stopTime="0.00" timeLoss="22.40" rerouteNo="0" devices="tripinfo_EW.MP.0.1" vType="MP" speedFactor="0.72" vaporized=""/>
    <tripinfo id="EN.SP.0.4" depart="102.60" departLane="CAEU_1" departPos="5.10" departPosLat="0.00" departSpeed="0.00" departDelay="39.44" arrival="159.80" arrivalLane="JSND_1" arrivalPos="191.93" arrivalPosLat="0.00" arrivalSpeed="9.46" duration="57.20" routeLength="468.06" waitingTime="0.80" waitingCount="1" stopTime="0.00" timeLoss="10.90" rerouteNo="0" devices="tripinfo_EN.SP.0.4" vType="SP" speedFactor="0.57" vaporized=""/>
    <tripinfo id="EW.SP.0.11" depart="120.40" departLane="CAEU_1" departPos="5.10" departPosLat="0.00" departSpeed="0.00" departDelay="39.25" arrival="160.20" arrivalLane="CAWD_4" arrivalPos="128.42" arrivalPosLat="-0.00" arrivalSpeed="16.33" duration="39.80" routeLength="515.31" waitingTime="0.00" waitingCount="0" stopTime="0.00" timeLoss="8.09" rerouteNo="0" devices="tripinfo_EW.SP.0.11" vType="SP" speedFactor="0.74" vaporized=""/>
    <tripinfo id="NS.MP.0.0" depart="11.20" departLane="JSNU_1" departPos="5.10" departPosLat="0.00" departSpeed="0.00" departDelay="11.20" arrival="161.80" arrivalLane="JSSD_1" arrivalPos="3.75" arrivalPosLat="0.00" arrivalSpeed="12.60" duration="150.60" routeLength="423.91" waitingTime="105.80" waitingCount="1" stopTime="0.00" timeLoss="116.85" rerouteNo="0" devices="tripinfo_NS.MP.0.0" vType="MP" speedFactor="0.76" vaporized=""/>
    <tripinfo id="EW.SP.0.8" depart="100.00" departLane="CAEU_1" departPos="5.10" departPosLat="0.00" departSpeed="0.00" departDelay="40.98" arrival="161.80" arrivalLane="CAWD_1" arrivalPos="128.42" arrivalPosLat="0.00" arrivalSpeed="15.64" duration="61.80" routeLength="515.31" waitingTime="14.20" waitingCount="1" stopTime="0.00" timeLoss="29.49" rerouteNo="0" devices="tripinfo_EW.SP.0.8" vType="SP" speedFactor="0.72" vaporized=""/>
    <tripinfo id="NS.SP.0.0" depart="8.80" departLane="JSNU_1" departPos="5.10" departPosLat="0.00" departSpeed="0.00" departDelay="8.80" arrival="162.20" arrivalLane="JSSD_2" arrivalPos="3.75" arrivalPosLat="-0.12" arrivalSpeed="12.14" duration="153.40" routeLength="423.91" waitingTime="105.40" waitingCount="1" stopTime="0.00" timeLoss="118.40" rerouteNo="0" devices="tripinfo_NS.SP.0.0" vType="SP" speedFactor="0.73" vaporized=""/>