<?xml version="1.0" encoding="UTF-8"?>

<!-- generated on 08/31/20 12:47:37 by Eclipse SUMO Version 1.6.0
<configuration xmlns:xsi="http://www.w3.org/2001/XMLSchema-instance" xsi:noNamespaceSchemaLocation="http://sumo.dlr.de/xsd/sumoConfiguration.xsd">

    <input>
        <net-file value="./project/ITLS.net.xml"/>
        <route-files value="./project/ITLS.rou.xml"/>
        <additional-files value="./project/ITLS.add.xml"/>
    </input>

    <output>
        <tripinfo-output value="./project/./output/output-tripinfos.xml"/>
    </output>

    <time>
        <begin value="0"/>
        <step-length value="0.2"/>
    </time>

    <processing>
        <lateral-resolution value="0.8"/>
    </processing>

    <report>
        <verbose value="true"/>
        <no-warnings value="true"/>
        <duration-log.disable value="false"/>
    </report>

    <traci_server>
        <remote-port value="61451"/>
    </traci_server>

    <random_number>
        <random value="true"/>
    </random_number>

    <gui_only>
        <gui-settings-file value="./project/view.settings.xml"/>
        <quit-on-end value="true"/>
        <start value="true"/>
        <tracker-interval value="0.2"/>
    </gui_only>

</configuration>
-->

<tripinfos xmlns:xsi="http://www.w3.org/2001/XMLSchema-instance" xsi:noNamespaceSchemaLocation="http://sumo.dlr.de/xsd/tripinfo_file.xsd">
    <tripinfo id="EW.SP.0.0" depart="8.60" departLane="CAEU_1" departPos="5.10" departPosLat="0.00" departSpeed="0.00" departDelay="8.60" arrival="44.60" arrivalLane="CAWD_1" arrivalPos="128.42" arrivalPosLat="0.00" arrivalSpeed="16.07" duration="36.00" routeLength="515.31" waitingTime="0.00" waitingCount="0" stopTime="0.00" timeLoss="3.87" rerouteNo="0" devices="tripinfo_EW.SP.0.0" vType="SP" speedFactor="0.72" vaporized=""/>
    <tripinfo id="WS.SP.0.0" depart="13.60" departLane="CAWU_1" departPos="5.10" departPosLat="0.00" departSpeed="0.00" departDelay="13.60" arrival="47.80" arrivalLane="JSSD_1" arrivalPos="3.75" arrivalPosLat="0.00" arrivalSpeed="12.81" duration="34.20" routeLength="400.21" waitingTime="0.20" waitingCount="1" stopTime="0.00" timeLoss="7.19" rerouteNo="0" devices="tripinfo_WS.SP.0.0" vType="SP" speedFactor="0.77" vaporized=""/>
    <tripinfo id="WE.SP.0.0" depart="4.80" departLane="CAWU_1" departPos="5.10" departPosLat="0.00" departSpeed="0.00" departDelay="4.80" arrival="48.60" arrivalLane="CAED_1" arrivalPos="54.32" arrivalPosLat="0.00" arrivalSpeed="9.18" duration="43.80" routeLength="518.55" waitingTime="0.00" waitingCount="0" stopTime="0.00" timeLoss="5.08" rerouteNo="0" devices="tripinfo_WE.SP.0.0" vType="SP" speedFactor="0.66" vaporized=""/>
    <tripinfo id="EW.MP.0.0" depart="11.00" departLane="CAEU_1" departPos="5.10" departPosLat="0.00" departSpeed="0.00" departDelay="11.00" arrival="49.60" arrivalLane="CAWD_1" arrivalPos="128.42" arrivalPosLat="0.00" arrivalSpeed="15.07" duration="38.60" routeLength="515.31" waitingTime="0.20" waitingCount="1" stopTime="0.00" timeLoss="4.38" rerouteNo="0" devices="tripinfo_EW.MP.0.0" vType="MP" speedFactor="0.68" vaporized=""/>
    <tripinfo id="WE.MP.0.0" depart="7.20" departLane="CAWU_1" departPos="5.10" departPosLat="0.00" departSpeed="0.00" departDelay="7.20" arrival="51.40" arrivalLane="CAED_1" arrivalPos="54.32" arrivalPosLat="0.00" arrivalSpeed="9.48" duration="44.20" routeLength="518.55" waitingTime="0.00" waitingCount="0" stopTime="0.00" timeLoss="6.86" rerouteNo="0" devices="tripinfo_WE.MP.0.0" vType="MP" speedFactor="0.68" vaporized=""/>
    <tripinfo id="WE.LP.0.0" depart="11.00" departLane="CAWU_1" departPos="14.10" departPosLat="0.00" departSpeed="0.00" departDelay="11.00" arrival="54.20" arrivalLane="CAED_1" arrivalPos="54.32" arrivalPosLat="0.00" arrivalSpeed="9.75" duration="43.20" routeLength="509.55" waitingTime="0.00" waitingCount="0" stopTime="0.00" timeLoss="7.55" rerouteNo="0" devices="tripinfo_WE.LP.0.0" vType="LP" speedFactor="0.71" vaporized=""/>
    <tripinfo id="EW.LP.0.0" depart="14.80" departLane="CAEU_1" departPos="14.10" departPosLat="0.00" departSpeed="0.00" departDelay="14.80" arrival="54.40" arrivalLane="CAWD_1" arrivalPos="128.42" arrivalPosLat="0.00" arrivalSpeed="14.62" duration="39.60" routeLength="506.31" waitingTime="0.20" waitingCount="1" stopTime="0.00" timeLoss="4.90" rerouteNo="0" devices="tripinfo_EW.LP.0.0" vType="LP" speedFactor="0.66" vaporized=""/>
    <tripinfo id="ES.SP.0.0" depart="0.00" departLane="CAEU_1" departPos="5.10" departPosLat="0.00" departSpeed="0.00" departDelay="0.00" arrival="55.80" arrivalLane="JSSD_1" arrivalPos="3.75" arrivalPosLat="-0.00" arrivalSpeed="13.00" duration="55.80" routeLength="348.84" waitingTime="18.80" waitingCount="1" stopTime="0.00" timeLoss="32.54" rerouteNo="0" devices="tripinfo_ES.SP.0.0" vType="SP" speedFactor="0.78" vaporized=""/>
    <tripinfo id="ES.LP.0.0" depart="6.00" departLane="CAEU_1" departPos="14.10" departPosLat="0.00" departSpeed="0.00" departDelay="6.00" arrival="56.00" arrivalLane="JSSD_2" arrivalPos="3.75" arrivalPosLat="-0.04" arrivalSpeed="13.08" duration="50.00" routeLength="331.94" waitingTime="13.40" waitingCount="1" stopTime="0.00" timeLoss="27.81" rerouteNo="0" devices="tripinfo_ES.LP.0.0" vType="LP" speedFactor="0.78" vaporized=""/>
    <tripinfo id="EN.SP.0.0" depart="17.60" departLane="CAEU_1" departPos="5.10" departPosLat="0.00" departSpeed="0.00" departDelay="17.60" arrival="57.40" arrivalLane="JSND_1" arrivalPos="191.93" arrivalPosLat="0.00" arrivalSpeed="13.71" duration="39.80" routeLength="468.06" waitingTime="0.00" waitingCount="0" stopTime="0.00" timeLoss="7.98" rerouteNo="0" devices="tripinfo_EN.SP.0.0" vType="SP" speedFactor="0.82" vaporized=""/>
    <tripinfo id="ES.MP.0.0" depart="2.20" departLane="CAEU_1" departPos="5.10" departPosLat="0.00" departSpeed="0.00" departDelay="2.20" arrival="60.00" arrivalLane="JSSD_1" arrivalPos="3.75" arrivalPosLat="-0.00" arrivalSpeed="11.01" duration="57.80" routeLength="348.84" waitingTime="13.60" waitingCount="1" stopTime="0.00" timeLoss="30.40" rerouteNo="0" devices="tripinfo_ES.MP.0.0" vType="MP" speedFactor="0.66" vaporized=""/>
    <tripinfo id="ES.ST.0.0" depart="26.80" departLane="CAEU_1" departPos="6.60" departPosLat="0.00" departSpeed="0.00" departDelay="26.80" arrival="62.40" arrivalLane="JSSD_1" arrivalPos="3.75" arrivalPosLat="0.01" arrivalSpeed="11.41" duration="35.60" routeLength="347.34" waitingTime="0.00" waitingCount="0" stopTime="0.00" timeLoss="9.65" rerouteNo="0" devices="tripinfo_ES.ST.0.0" vType="ST" speedFactor="0.69" vaporized=""/>
    <tripinfo id="EN.MP.0.0" depart="20.20" departLane="CAEU_1" departPos="5.10" departPosLat="0.00" departSpeed="0.00" departDelay="20.20" arrival="65.80" arrivalLane="JSND_1" arrivalPos="191.93" arrivalPosLat="-0.00" arrivalSpeed="12.30" duration="45.60" routeLength="468.06" waitingTime="0.00" waitingCount="0" stopTime="0.00" timeLoss="10.01" rerouteNo="0" devices="tripinfo_EN.MP.0.0" vType="MP" speedFactor="0.74" vaporized=""/>
    <tripinfo id="ES.MT.0.0" depart="29.80" departLane="CAEU_1" departPos="7.20" departPosLat="0.00" departSpeed="0.00" departDelay="29.80" arrival="68.00" arrivalLane="JSSD_1" arrivalPos="3.75" arrivalPosLat="-0.00" arrivalSpeed="9.67" duration="38.20" routeLength="346.74" waitingTime="0.00" waitingCount="0" stopTime="0.00" timeLoss="7.18" rerouteNo="0" devices="tripinfo_ES.MT.0.0" vType="MT" speedFactor="0.58" vaporized=""/>
    <tripinfo id="WN.MP.0.0" depart="2.20" departLane="CAWU_1" departPos="5.10" departPosLat="0.00" departSpeed="0.00" departDelay="2.20" arrival="70.00" arrivalLane="JSND_2" arrivalPos="191.93" arrivalPosLat="-1.80" arrivalSpeed="11.69" duration="67.80" routeLength="577.90" waitingTime="10.40" waitingCount="1" stopTime="0.00" timeLoss="23.99" rerouteNo="0" devices="tripinfo_WN.MP.0.0" vType="MP" speedFactor="0.70" vaporized=""/>
    <tripinfo id="ES.LT.0.0" depart="34.20" departLane="CAEU_1" departPos="16.60" departPosLat="0.00" departSpeed="0.00" departDelay="34.20" arrival="70.20" arrivalLane="JSSD_1" arrivalPos="3.75" arrivalPosLat="-0.00" arrivalSpeed="10.79" duration="36.00" routeLength="337.34" waitingTime="0.20" waitingCount="1" stopTime="0.00" timeLoss="11.52" rerouteNo="0" devices="tripinfo_ES.LT.0.0" vType="LT" speedFactor="0.72" vaporized=""/>
    <tripinfo id="WN.SP.0.0" depart="0.00" departLane="CAWU_1" departPos="5.10" departPosLat="0.00" departSpeed="0.00" departDelay="0.00" arrival="74.60" arrivalLane="JSND_1" arrivalPos="191.93" arrivalPosLat="0.00" arrivalSpeed="10.94" duration="74.60" routeLength="583.66" waitingTime="14.20" waitingCount="2" stopTime="0.00" timeLoss="27.48" rerouteNo="0" devices="tripinfo_WN.SP.0.0" vType="SP" speedFactor="0.66" vaporized=""/>
    <tripinfo id="WN.LT.0.0" depart="21.80" departLane="CAWU_1" departPos="16.60" departPosLat="0.00" departSpeed="0.00" departDelay="21.80" arrival="75.20" arrivalLane="JSND_2" arrivalPos="191.93" arrivalPosLat="0.00" arrivalSpeed="12.08" duration="53.40" routeLength="566.40" waitingTime="0.00" waitingCount="0" stopTime="0.00" timeLoss="11.76" rerouteNo="0" devices="tripinfo_WN.LT.0.0" vType="LT" speedFactor="0.73" vaporized=""/>
    <tripinfo id="EN.LP.0.0" depart="23.80" departLane="CAEU_1" departPos="14.10" departPosLat="0.00" departSpeed="0.00" departDelay="23.80" arrival="78.60" arrivalLane="JSND_1" arrivalPos="191.93" arrivalPosLat="0.00" arrivalSpeed="11.22" duration="54.80" routeLength="459.06" waitingTime="2.60" waitingCount="1" stopTime="0.00" timeLoss="16.48" rerouteNo="0" devices="tripinfo_EN.LP.0.0" vType="LP" speedFactor="0.67" vaporized=""/>
    <tripinfo id="WN.MT.0.0" depart="16.60" departLane="CAWU_1" departPos="7.20" departPosLat="0.00" departSpeed="0.00" departDelay="16.60" arrival="90.40" arrivalLane="JSND_1" arrivalPos="191.93" arrivalPosLat="0.00" arrivalSpeed="8.74" duration="73.80" routeLength="581.56" waitingTime="2.40" waitingCount="1" stopTime="0.00" timeLoss="15.01" rerouteNo="0" devices="tripinfo_WN.MT.0.0" vType="MT" speedFactor="0.52" vaporized=""/>
    <tripinfo id="EW.ST.0.0" depart="38.60" departLane="CAEU_1" departPos="6.60" departPosLat="0.00" departSpeed="0.00" departDelay="38.60" arrival="93.00" arrivalLane="CAWD_1" arrivalPos="128.42" arrivalPosLat="0.00" arrivalSpeed="17.63" duration="54.40" routeLength="513.81" waitingTime="11.00" waitingCount="1" stopTime="0.00" timeLoss="25.21" rerouteNo="0" devices="tripinfo_EW.ST.0.0" vType="ST" speedFactor="0.79" vaporized=""/>
    <tripinfo id="WN.SP.0.1" depart="38.00" departLane="CAWU_1" departPos="5.10" departPosLat="0.00" departSpeed="0.00" departDelay="27.29" arrival="93.60" arrivalLane="JSND_1" arrivalPos="191.93" arrivalPosLat="-0.00" arrivalSpeed="10.30" duration="55.60" routeLength="583.66" waitingTime="0.00" waitingCount="0" stopTime="0.00" timeLoss="5.84" rerouteNo="0" devices="tripinfo_WN.SP.0.1" vType="SP" speedFactor="0.62" vaporized=""/>
    <tripinfo id="WN.SP.0.2" depart="45.40" departLane="CAWU_1" departPos="5.10" departPosLat="0.00" departSpeed="0.00" departDelay="23.97" arrival="95.40" arrivalLane="JSND_1" arrivalPos="191.93" arrivalPosLat="0.00" arrivalSpeed="12.18" duration="50.00" routeLength="583.66" waitingTime="0.00" waitingCount="0" stopTime="0.00" timeLoss="10.95" rerouteNo="0" devices="tripinfo_WN.SP.0.2" vType="SP" speedFactor="0.79" vaporized=""/>
    <tripinfo id="EW.LT.0.0" depart="47.20" departLane="CAEU_1" departPos="16.60" departPosLat="0.00" departSpeed="0.00" departDelay="47.20" arrival="97.40" arrivalLane="CAWD_4" arrivalPos="128.42" arrivalPosLat="-0.00" arrivalSpeed="16.91" duration="50.20" routeLength="503.81" waitingTime="0.00" waitingCount="0" stopTime="0.00" timeLoss="20.55" rerouteNo="0" devices="tripinfo_EW.LT.0.0" vType="LT" speedFactor="0.77" vaporized=""/>
    <tripinfo id="EW.MT.0.0" depart="41.60" departLane="CAEU_1" departPos="7.20" departPosLat="0.00" departSpeed="0.00" departDelay="41.60" arrival="98.80" arrivalLane="CAWD_1" arrivalPos="128.42" arrivalPosLat="0.00" arrivalSpeed="16.47" duration="57.20" routeLength="513.21" waitingTime="5.20" waitingCount="2" stopTime="0.00" timeLoss="26.11" rerouteNo="0" devices="tripinfo_EW.MT.0.0" vType="MT" speedFactor="0.74" vaporized=""/>
    <tripinfo id="EN.MT.0.0" depart="51.20" departLane="CAEU_1" departPos="7.20" departPosLat="0.00" departSpeed="0.00" departDelay="51.20" arrival="106.40" arrivalLane="JSND_1" arrivalPos="191.93" arrivalPosLat="0.00" arrivalSpeed="9.57" duration="55.20" routeLength="465.96" waitingTime="0.20" waitingCount="1" stopTime="0.00" timeLoss="9.72" rerouteNo="0" devices="tripinfo_EN.MT.0.0" vType="MT" speedFactor="0.57" vaporized=""/>
    <tripinfo id="EN.LT.0.0" depart="56.80" departLane="CAEU_1" departPos="16.60" departPosLat="0.00" departSpeed="0.00" departDelay="56.80" arrival="110.60" arrivalLane="JSND_1" arrivalPos="191.93" arrivalPosLat="-0.00" arrivalSpeed="10.32" duration="53.80" routeLength="456.56" waitingTime="0.00" waitingCount="0" stopTime="0.00" timeLoss="12.59" rerouteNo="0" devices="tripinfo_EN.LT.0.0" vType="LT" speedFactor="0.62" vaporized=""/>
    <tripinfo id="SW.SP.0.0" depart="0.00" departLane="JSSU_1" departPos="5.10" departPosLat="0.00" departSpeed="0.00" departDelay="0.00" arrival="112.80" arrivalLane="CAWD_2" arrivalPos="128.42" arrivalPosLat="-1.00" arrivalSpeed="11.43" duration="112.80" routeLength="490.74" waitingTime="54.80" waitingCount="1" stopTime="0.00" timeLoss="63.16" rerouteNo="0" devices="tripinfo_SW.SP.0.0" vType="SP" speedFactor="0.51" vaporized=""/>
    <tripinfo id="NE.SP.0.0" depart="0.00" departLane="JSNU_1" departPos="5.10" departPosLat="0.00" departSpeed="0.00" departDelay="0.00" arrival="113.00" arrivalLane="CAED_4" arrivalPos="54.32" arrivalPosLat="-0.24" arrivalSpeed="6.90" duration="113.00" routeLength="497.48" waitingTime="44.00" waitingCount="1" stopTime="0.00" timeLoss="53.85" rerouteNo="0" devices="tripinfo_NE.SP.0.0" vType="SP" speedFactor="0.50" vaporized=""/>
    <tripinfo id="EN.SP.0.1" depart="68.20" departLane="CAEU_1" departPos="5.10" departPosLat="0.00" departSpeed="0.00" departDelay="52.41" arrival="113.40" arrivalLane="JSND_1" arrivalPos="191.93" arrivalPosLat="-0.00" arrivalSpeed="12.46" duration="45.20" routeLength="468.06" waitingTime="0.00" waitingCount="0" stopTime="0.00" timeLoss="11.06" rerouteNo="0" devices="tripinfo_EN.SP.0.1" vType="SP" speedFactor="0.77" vaporized=""/>
    <tripinfo id="SW.MP.0.0" depart="2.20" departLane="JSSU_1" departPos="5.10" departPosLat="0.00" departSpeed="0.00" departDelay="2.20" arrival="113.60" arrivalLane="CAWD_4" arrivalPos="128.42" arrivalPosLat="0.00" arrivalSpeed="13.90" duration="111.40" routeLength="490.74" waitingTime="53.20" waitingCount="1" stopTime="0.00" timeLoss="70.75" rerouteNo="0" devices="tripinfo_SW.MP.0.0" vType="MP" speedFactor="0.63" vaporized=""/>
    <tripinfo id="NE.MP.0.0" depart="2.20" departLane="JSNU_1" departPos="5.10" departPosLat="0.00" departSpeed="0.00" departDelay="2.20" arrival="114.80" arrivalLane="CAED_4" arrivalPos="54.32" arrivalPosLat="-0.00" arrivalSpeed="9.58" duration="112.60" routeLength="497.48" waitingTime="42.40" waitingCount="1" stopTime="0.00" timeLoss="73.87" rerouteNo="0" devices="tripinfo_NE.MP.0.0" vType="MP" speedFactor="0.76" vaporized=""/>
    <tripinfo id="WE.SP.0.6" depart="55.40" departLane="CAWU_1" departPos="5.10" departPosLat="0.00" departSpeed="0.00" departDelay="12.88" arrival="116.80" arrivalLane="CAED_4" arrivalPos="54.32" arrivalPosLat="0.00" arrivalSpeed="9.46" duration="61.40" routeLength="518.55" waitingTime="6.60" waitingCount="1" stopTime="0.00" timeLoss="24.94" rerouteNo="0" devices="tripinfo_WE.SP.0.6" vType="SP" speedFactor="0.70" vaporized=""/>
    <tripinfo id="WN.SP.0.3" depart="50.40" departLane="CAWU_1" departPos="5.10" departPosLat="0.00" departSpeed="0.00" departDelay="18.26" arrival="119.00" arrivalLane="JSND_1" arrivalPos="191.93" arrivalPosLat="0.00" arrivalSpeed="12.59" duration="68.60" routeLength="583.66" waitingTime="14.60" waitingCount="1" stopTime="0.00" timeLoss="27.77" rerouteNo="0" devices="tripinfo_WN.SP.0.3" vType="SP" speedFactor="0.76" vaporized=""/>
    <tripinfo id="WN.SP.0.5" depart="62.80" departLane="CAWU_1" departPos="5.10" departPosLat="0.00" departSpeed="0.00" departDelay="9.23" arrival="120.80" arrivalLane="JSND_1" arrivalPos="191.93" arrivalPosLat="-0.00" arrivalSpeed="14.51" duration="58.00" routeLength="583.66" waitingTime="3.80" waitingCount="1" stopTime="0.00" timeLoss="25.26" rerouteNo="0" devices="tripinfo_WN.SP.0.5" vType="SP" speedFactor="0.94" vaporized=""/>
    <tripinfo id="NS.SP.0.0" depart="8.80" departLane="JSNU_1" departPos="5.10" departPosLat="0.00" departSpeed="0.00" departDelay="8.80" arrival="121.20" arrivalLane="JSSD_1" arrivalPos="3.75" arrivalPosLat="-0.00" arrivalSpeed="13.34" duration="112.40" routeLength="423.91" waitingTime="67.60" waitingCount="1" stopTime="0.00" timeLoss="80.50" rerouteNo="0" devices="tripinfo_NS.SP.0.0" vType="SP" speedFactor="0.80" vaporized=""/>
    <tripinfo id="WE.SP.0.5" depart="52.80" departLane="CAWU_1" departPos="5.10" departPosLat="0.00" departSpeed="0.00" departDelay="17.37" arrival="121.20" arrivalLane="CAED_4" arrivalPos="54.32" arrivalPosLat="-0.00" arrivalSpeed="8.02" duration="68.40" routeLength="518.55" waitingTime="3.60" waitingCount="3" stopTime="0.00" timeLoss="24.21" rerouteNo="0" devices="tripinfo_WE.SP.0.5" vType="SP" speedFactor="0.58" vaporized=""/>
    <tripinfo id="WN.SP.0.4" depart="57.80" departLane="CAWU_1" departPos="5.10" departPosLat="0.00" departSpeed="0.00" departDelay="14.94" arrival="121.20" arrivalLane="JSND_2" arrivalPos="191.93" arrivalPosLat="-0.12" arrivalSpeed="11.27" duration="63.40" routeLength="577.90" waitingTime="5.80" waitingCount="2" stopTime="0.00" timeLoss="17.93" rerouteNo="0" devices="tripinfo_WN.SP.0.4" vType="SP" speedFactor="0.68" vaporized=""/>
    <tripinfo id="WE.MT.0.0" depart="26.00" departLane="CAWU_1" departPos="7.20" departPosLat="0.00" departSpeed="0.00" departDelay="26.00" arrival="121.40" arrivalLane="CAED_1" arrivalPos="54.32" arrivalPosLat="0.00" arrivalSpeed="8.18" duration="95.40" routeLength="516.45" waitingTime="34.00" waitingCount="2" stopTime="0.00" timeLoss="52.14" rerouteNo="0" devices="tripinfo_WE.MT.0.0" vType="MT" speedFactor="0.59" vaporized=""/>
    <tripinfo id="WE.LT.0.0" depart="31.60" departLane="CAWU_1" departPos="16.60" departPosLat="0.00" departSpeed="0.00" departDelay="31.60" arrival="123.20" arrivalLane="CAED_2" arrivalPos="54.32" arrivalPosLat="0.00" arrivalSpeed="9.70" duration="91.60" routeLength="507.05" waitingTime="29.80" waitingCount="2" stopTime="0.00" timeLoss="55.86" rerouteNo="0" devices="tripinfo_WE.LT.0.0" vType="LT" speedFactor="0.70" vaporized=""/>
    <tripinfo id="WE.SP.0.7" depart="60.40" departLane="CAWU_1" departPos="5.10" departPosLat="0.00" departSpeed="0.00" departDelay="10.79" arrival="123.20" arrivalLane="CAED_4" arrivalPos="54.32" arrivalPosLat="0.00" arrivalSpeed="9.90" duration="62.80" routeLength="518.55" waitingTime="0.20" waitingCount="1" stopTime="0.00" timeLoss="28.48" rerouteNo="0" devices="tripinfo_WE.SP.0.7" vType="SP" speedFactor="0.75" vaporized=""/>
    <tripinfo id="NS.MP.0.0" depart="11.40" departLane="JSNU_1" departPos="5.10" departPosLat="0.00" departSpeed="0.00" departDelay="11.40" arrival="123.80" arrivalLane="JSSD_1" arrivalPos="3.75" arrivalPosLat="-0.00" arrivalSpeed="10.91" duration="112.40" routeLength="423.91" waitingTime="60.20" waitingCount="1" stopTime="0.00" timeLoss="73.53" rerouteNo="0" devices="tripinfo_NS.MP.0.0" vType="MP" speedFactor="0.66" vaporized=""/>
    <tripinfo id="WN.SP.0.6" depart="70.20" departLane="CAWU_1" departPos="5.10" departPosLat="0.00" departSpeed="0.00" departDelay="5.92" arrival="124.00" arrivalLane="JSND_2" arrivalPos="191.93" arrivalPosLat="-0.60" arrivalSpeed="11.87" duration="53.80" routeLength="577.90" waitingTime="0.00" waitingCount="0" stopTime="0.00" timeLoss="10.84" rerouteNo="0" devices="tripinfo_WN.SP.0.6" vType="SP" speedFactor="0.72" vaporized=""/>
    <tripinfo id="WE.SP.0.1" depart="35.20" departLane="CAWU_1" departPos="5.10" departPosLat="0.00" departSpeed="0.00" departDelay="28.11" arrival="124.60" arrivalLane="CAED_1" arrivalPos="54.32" arrivalPosLat="0.00" arrivalSpeed="8.06" duration="89.40" routeLength="518.55" waitingTime="27.80" waitingCount="2" stopTime="0.00" timeLoss="45.36" rerouteNo="0" devices="tripinfo_WE.SP.0.1" vType="SP" speedFactor="0.58" vaporized=""/>
    <tripinfo id="WE.SP.0.8" depart="65.40" departLane="CAWU_1" departPos="5.10" departPosLat="0.00" departSpeed="0.00" departDelay="8.70" arrival="125.40" arrivalLane="CAED_4" arrivalPos="54.32" arrivalPosLat="0.00" arrivalSpeed="9.62" duration="60.00" routeLength="518.55" waitingTime="0.00" waitingCount="0" stopTime="0.00" timeLoss="23.72" rerouteNo="0" devices="tripinfo_WE.SP.0.8" vType="SP" speedFactor="0.71" vaporized=""/>
    <tripinfo id="WE.SP.0.4" depart="48.00" departLane="CAWU_1" departPos="5.10" departPosLat="0.00" departSpeed="0.00" departDelay="19.65" arrival="125.60" arrivalLane="CAED_3" arrivalPos="54.32" arrivalPosLat="-0.00" arrivalSpeed="9.96" duration="77.60" routeLength="518.55" waitingTime="15.00" waitingCount="1" stopTime="0.00" timeLoss="41.96" rerouteNo="0" devices="tripinfo_WE.SP.0.4" vType="SP" speedFactor="0.72" vaporized=""/>
    <tripinfo id="EN.SP.0.2" depart="78.20" departLane="CAEU_1" departPos="5.10" departPosLat="0.00" departSpeed="0.00" departDelay="46.62" arrival="125.60" arrivalLane="JSND_1" arrivalPos="191.93" arrivalPosLat="0.00" arrivalSpeed="12.18" duration="47.40" routeLength="468.06" waitingTime="0.00" waitingCount="0" stopTime="0.00" timeLoss="11.45" rerouteNo="0" devices="tripinfo_EN.SP.0.2" vType="SP" speedFactor="0.73" vaporized=""/>
    <tripinfo id="NS.LP.0.0" depart="15.20" departLane="JSNU_1" departPos="14.10" departPosLat="0.00" departSpeed="0.00" departDelay="15.20" arrival="126.60" arrivalLane="JSSD_1" arrivalPos="3.75" arrivalPosLat="-0.00" arrivalSpeed="10.92" duration="111.40" routeLength="414.91" waitingTime="60.20" waitingCount="1" stopTime="0.00" timeLoss="73.61" rerouteNo="0" devices="tripinfo_NS.LP.0.0" vType="LP" speedFactor="0.66" vaporized=""/>
    <tripinfo id="WE.SP.0.2" depart="40.40" departLane="CAWU_1" departPos="5.10" departPosLat="0.00" departSpeed="0.00" departDelay="26.23" arrival="126.80" arrivalLane="CAED_1" arrivalPos="54.32" arrivalPosLat="0.00" arrivalSpeed="8.74" duration="86.40" routeLength="518.55" waitingTime="25.20" waitingCount="1" stopTime="0.00" timeLoss="46.34" rerouteNo="0" devices="tripinfo_WE.SP.0.2" vType="SP" speedFactor="0.64" vaporized=""/>
    <tripinfo id="NS.ST.0.0" depart="37.20" departLane="JSNU_1" departPos="6.60" departPosLat="0.00" departSpeed="0.00" departDelay="37.20" arrival="127.60" arrivalLane="JSSD_2" arrivalPos="3.75" arrivalPosLat="0.00" arrivalSpeed="9.89" duration="90.40" routeLength="422.41" waitingTime="30.60" waitingCount="2" stopTime="0.00" timeLoss="47.63" rerouteNo="0" devices="tripinfo_NS.ST.0.0" vType="ST" speedFactor="0.59" vaporized=""/>
    <tripinfo id="NS.MT.0.0" depart="40.20" departLane="JSNU_1" departPos="7.20" departPosLat="0.00" departSpeed="0.00" departDelay="40.20" arrival="129.80" arrivalLane="JSSD_2" arrivalPos="3.75" arrivalPosLat="0.00" arrivalSpeed="11.48" duration="89.60" routeLength="421.81" waitingTime="25.80" waitingCount="3" stopTime="0.00" timeLoss="56.49" rerouteNo="0" devices="tripinfo_NS.MT.0.0" vType="MT" speedFactor="0.77" vaporized=""/>
    <tripinfo id="WE.SP.0.3" depart="43.00" departLane="CAWU_1" departPos="5.10" departPosLat="0.00" departSpeed="0.00" departDelay="21.74" arrival="130.20" arrivalLane="CAED_4" arrivalPos="54.32" arrivalPosLat="-0.00" arrivalSpeed="7.73" duration="87.20" routeLength="518.55" waitingTime="22.00" waitingCount="1" stopTime="0.00" timeLoss="41.35" rerouteNo="0" devices="tripinfo_WE.SP.0.3" vType="SP" speedFactor="0.56" vaporized=""/>
    <tripinfo id="NE.LP.0.0" depart="6.20" departLane="JSNU_1" departPos="14.10" departPosLat="0.00" departSpeed="0.00" departDelay="6.20" arrival="132.20" arrivalLane="CAED_4" arrivalPos="54.32" arrivalPosLat="0.00" arrivalSpeed="9.93" duration="126.00" routeLength="488.48" waitingTime="58.00" waitingCount="2" stopTime="0.00" timeLoss="89.99" rerouteNo="0" devices="tripinfo_NE.LP.0.0" vType="LP" speedFactor="0.80" vaporized=""/>
    <tripinfo id="NS.SP.0.1" depart="51.80" departLane="JSNU_1" departPos="5.10" departPosLat="0.00" departSpeed="0.00" departDelay="42.62" arrival="132.20" arrivalLane="JSSD_2" arrivalPos="3.75" arrivalPosLat="0.00" arrivalSpeed="11.98" duration="80.40" routeLength="423.91" waitingTime="15.60" waitingCount="2" stopTime="0.00" timeLoss="45.57" rerouteNo="0" devices="tripinfo_NS.SP.0.1" vType="SP" speedFactor="0.73" vaporized=""/>
    <tripinfo id="NW.SP.0.0" depart="17.80" departLane="JSNU_1" departPos="5.10" departPosLat="0.00" departSpeed="0.00" departDelay="17.80" arrival="133.80" arrivalLane="CAWD_1" arrivalPos="128.42" arrivalPosLat="0.00" arrivalSpeed="18.13" duration="116.00" routeLength="555.06" waitingTime="59.00" waitingCount="2" stopTime="0.00" timeLoss="79.21" rerouteNo="0" devices="tripinfo_NW.SP.0.0" vType="SP" speedFactor="0.82" vaporized=""/>
    <tripinfo id="NS.SP.0.5" depart="69.60" departLane="JSNU_1" departPos="5.10" departPosLat="0.00" departSpeed="0.00" departDelay="23.68" arrival="134.20" arrivalLane="JSSD_2" arrivalPos="3.75" arrivalPosLat="0.00" arrivalSpeed="13.75" duration="64.60" routeLength="423.91" waitingTime="6.20" waitingCount="1" stopTime="0.00" timeLoss="35.02" rerouteNo="0" devices="tripinfo_NS.SP.0.5" vType="SP" speedFactor="0.86" vaporized=""/>
    <tripinfo id="NE.ST.0.0" depart="24.80" departLane="JSNU_1" departPos="6.60" departPosLat="0.00" departSpeed="0.00" departDelay="24.80" arrival="134.60" arrivalLane="CAED_4" arrivalPos="54.32" arrivalPosLat="0.00" arrivalSpeed="12.14" duration="109.80" routeLength="495.98" waitingTime="48.40" waitingCount="2" stopTime="0.00" timeLoss="79.33" rerouteNo="0" devices="tripinfo_NE.ST.0.0" vType="ST" speedFactor="0.96" vaporized=""/>
    <tripinfo id="NS.LT.0.0" depart="44.40" departLane="JSNU_1" departPos="16.60" departPosLat="0.00" departSpeed="0.00" departDelay="44.40" arrival="134.80" arrivalLane="JSSD_1" arrivalPos="3.75" arrivalPosLat="0.00" arrivalSpeed="13.35" duration="90.40" routeLength="412.41" waitingTime="36.80" waitingCount="1" stopTime="0.00" timeLoss="59.75" rerouteNo="0" devices="tripinfo_NS.LT.0.0" vType="LT" speedFactor="0.81" vaporized=""/>
    <tripinfo id="NS.SP.0.6" depart="79.80" departLane="JSNU_1" departPos="5.10" departPosLat="0.00" departSpeed="0.00" departDelay="24.70" arrival="137.00" arrivalLane="JSSD_2" arrivalPos="3.75" arrivalPosLat="0.00" arrivalSpeed="13.49" duration="57.20" routeLength="423.91" waitingTime="5.00" waitingCount="1" stopTime="0.00" timeLoss="25.96" rerouteNo="0" devices="tripinfo_NS.SP.0.6" vType="SP" speedFactor="0.82" vaporized=""/>
    <tripinfo id="EN.SP.0.3" depart="91.20" departLane="CAEU_1" departPos="5.10" departPosLat="0.00" departSpeed="0.00" departDelay="43.83" arrival="137.80" arrivalLane="JSND_1" arrivalPos="191.93" arrivalPosLat="-0.00" arrivalSpeed="10.93" duration="46.60" routeLength="468.06" waitingTime="0.00" waitingCount="0" stopTime="0.00" timeLoss="6.60" rerouteNo="0" devices="tripinfo_EN.SP.0.3" vType="SP" speedFactor="0.66" vaporized=""/>
    <tripinfo id="NW.LP.0.0" depart="21.80" departLane="JSNU_1" departPos="14.10" departPosLat="0.00" departSpeed="0.00" departDelay="21.80" arrival="138.60" arrivalLane="CAWD_1" arrivalPos="128.42" arrivalPosLat="0.00" arrivalSpeed="16.79" duration="116.80" routeLength="546.06" waitingTime="58.00" waitingCount="1" stopTime="0.00" timeLoss="77.85" rerouteNo="0" devices="tripinfo_NW.LP.0.0" vType="LP" speedFactor="0.76" vaporized=""/>
    <tripinfo id="NS.SP.0.2" depart="57.00" departLane="JSNU_1" departPos="5.10" departPosLat="0.00" departSpeed="0.00" departDelay="38.63" arrival="142.40" arrivalLane="JSSD_1" arrivalPos="3.75" arrivalPosLat="0.00" arrivalSpeed="11.83" duration="85.40" routeLength="423.91" waitingTime="29.80" waitingCount="2" stopTime="0.00" timeLoss="49.52" rerouteNo="0" devices="tripinfo_NS.SP.0.2" vType="SP" speedFactor="0.71" vaporized=""/>
    <tripinfo id="SE.SP.0.0" depart="14.00" departLane="JSSU_1" departPos="5.10" departPosLat="0.00" departSpeed="0.00" departDelay="14.00" arrival="144.00" arrivalLane="CAED_1" arrivalPos="54.32" arrivalPosLat="0.00" arrivalSpeed="8.55" duration="130.00" routeLength="388.94" waitingTime="78.60" waitingCount="1" stopTime="0.00" timeLoss="92.15" rerouteNo="0" devices="tripinfo_SE.SP.0.0" vType="SP" speedFactor="0.62" vaporized=""/>
    <tripinfo id="SN.MP.0.0" depart="11.40" departLane="JSSU_1" departPos="5.10" departPosLat="0.00" departSpeed="0.00" departDelay="11.40" arrival="145.20" arrivalLane="JSND_2" arrivalPos="191.93" arrivalPosLat="-1.40" arrivalSpeed="11.86" duration="133.80" routeLength="490.97" waitingTime="81.00" waitingCount="2" stopTime="0.00" timeLoss="92.37" rerouteNo="0" devices="tripinfo_SN.MP.0.0" vType="MP" speedFactor="0.71" vaporized=""/>
    <tripinfo id="SN.SP.0.0" depart="8.80" departLane="JSSU_1" departPos="5.10" departPosLat="0.00" departSpeed="0.00" departDelay="8.80" arrival="147.00" arrivalLane="JSND_1" arrivalPos="191.93" arrivalPosLat="0.00" arrivalSpeed="11.14" duration="138.20" routeLength="490.97" waitingTime="84.00" waitingCount="2" stopTime="0.00" timeLoss="94.02" rerouteNo="0" devices="tripinfo_SN.SP.0.0" vType="SP" speedFactor="0.67" vaporized=""/>